# vtk DataFile Version 3.0
2D flow
ASCII
DATASET STRUCTURED_GRID
DIMENSIONS 50 50 1
POINTS 2500 float
0.01 0.001 0.0000
0.03 0.001 0.0000
0.05 0.001 0.0000
0.07 0.001 0.0000
0.09 0.001 0.0000
0.11 0.001 0.0000
0.13 0.001 0.0000
0.15 0.001 0.0000
0.17 0.001 0.0000
0.19 0.001 0.0000
0.21 0.001 0.0000
0.23 0.001 0.0000
0.25 0.001 0.0000
0.27 0.001 0.0000
0.29 0.001 0.0000
0.31 0.001 0.0000
0.33 0.001 0.0000
0.35 0.001 0.0000
0.37 0.001 0.0000
0.39 0.001 0.0000
0.41 0.001 0.0000
0.43 0.001 0.0000
0.45 0.001 0.0000
0.47 0.001 0.0000
0.49 0.001 0.0000
0.51 0.001 0.0000
0.53 0.001 0.0000
0.55 0.001 0.0000
0.57 0.001 0.0000
0.59 0.001 0.0000
0.61 0.001 0.0000
0.63 0.001 0.0000
0.65 0.001 0.0000
0.67 0.001 0.0000
0.69 0.001 0.0000
0.71 0.001 0.0000
0.73 0.001 0.0000
0.75 0.001 0.0000
0.77 0.001 0.0000
0.79 0.001 0.0000
0.81 0.001 0.0000
0.83 0.001 0.0000
0.85 0.001 0.0000
0.87 0.001 0.0000
0.89 0.001 0.0000
0.91 0.001 0.0000
0.93 0.001 0.0000
0.95 0.001 0.0000
0.97 0.001 0.0000
0.99 0.001 0.0000
0.01 0.003 0.0000
0.03 0.003 0.0000
0.05 0.003 0.0000
0.07 0.003 0.0000
0.09 0.003 0.0000
0.11 0.003 0.0000
0.13 0.003 0.0000
0.15 0.003 0.0000
0.17 0.003 0.0000
0.19 0.003 0.0000
0.21 0.003 0.0000
0.23 0.003 0.0000
0.25 0.003 0.0000
0.27 0.003 0.0000
0.29 0.003 0.0000
0.31 0.003 0.0000
0.33 0.003 0.0000
0.35 0.003 0.0000
0.37 0.003 0.0000
0.39 0.003 0.0000
0.41 0.003 0.0000
0.43 0.003 0.0000
0.45 0.003 0.0000
0.47 0.003 0.0000
0.49 0.003 0.0000
0.51 0.003 0.0000
0.53 0.003 0.0000
0.55 0.003 0.0000
0.57 0.003 0.0000
0.59 0.003 0.0000
0.61 0.003 0.0000
0.63 0.003 0.0000
0.65 0.003 0.0000
0.67 0.003 0.0000
0.69 0.003 0.0000
0.71 0.003 0.0000
0.73 0.003 0.0000
0.75 0.003 0.0000
0.77 0.003 0.0000
0.79 0.003 0.0000
0.81 0.003 0.0000
0.83 0.003 0.0000
0.85 0.003 0.0000
0.87 0.003 0.0000
0.89 0.003 0.0000
0.91 0.003 0.0000
0.93 0.003 0.0000
0.95 0.003 0.0000
0.97 0.003 0.0000
0.99 0.003 0.0000
0.01 0.005 0.0000
0.03 0.005 0.0000
0.05 0.005 0.0000
0.07 0.005 0.0000
0.09 0.005 0.0000
0.11 0.005 0.0000
0.13 0.005 0.0000
0.15 0.005 0.0000
0.17 0.005 0.0000
0.19 0.005 0.0000
0.21 0.005 0.0000
0.23 0.005 0.0000
0.25 0.005 0.0000
0.27 0.005 0.0000
0.29 0.005 0.0000
0.31 0.005 0.0000
0.33 0.005 0.0000
0.35 0.005 0.0000
0.37 0.005 0.0000
0.39 0.005 0.0000
0.41 0.005 0.0000
0.43 0.005 0.0000
0.45 0.005 0.0000
0.47 0.005 0.0000
0.49 0.005 0.0000
0.51 0.005 0.0000
0.53 0.005 0.0000
0.55 0.005 0.0000
0.57 0.005 0.0000
0.59 0.005 0.0000
0.61 0.005 0.0000
0.63 0.005 0.0000
0.65 0.005 0.0000
0.67 0.005 0.0000
0.69 0.005 0.0000
0.71 0.005 0.0000
0.73 0.005 0.0000
0.75 0.005 0.0000
0.77 0.005 0.0000
0.79 0.005 0.0000
0.81 0.005 0.0000
0.83 0.005 0.0000
0.85 0.005 0.0000
0.87 0.005 0.0000
0.89 0.005 0.0000
0.91 0.005 0.0000
0.93 0.005 0.0000
0.95 0.005 0.0000
0.97 0.005 0.0000
0.99 0.005 0.0000
0.01 0.007 0.0000
0.03 0.007 0.0000
0.05 0.007 0.0000
0.07 0.007 0.0000
0.09 0.007 0.0000
0.11 0.007 0.0000
0.13 0.007 0.0000
0.15 0.007 0.0000
0.17 0.007 0.0000
0.19 0.007 0.0000
0.21 0.007 0.0000
0.23 0.007 0.0000
0.25 0.007 0.0000
0.27 0.007 0.0000
0.29 0.007 0.0000
0.31 0.007 0.0000
0.33 0.007 0.0000
0.35 0.007 0.0000
0.37 0.007 0.0000
0.39 0.007 0.0000
0.41 0.007 0.0000
0.43 0.007 0.0000
0.45 0.007 0.0000
0.47 0.007 0.0000
0.49 0.007 0.0000
0.51 0.007 0.0000
0.53 0.007 0.0000
0.55 0.007 0.0000
0.57 0.007 0.0000
0.59 0.007 0.0000
0.61 0.007 0.0000
0.63 0.007 0.0000
0.65 0.007 0.0000
0.67 0.007 0.0000
0.69 0.007 0.0000
0.71 0.007 0.0000
0.73 0.007 0.0000
0.75 0.007 0.0000
0.77 0.007 0.0000
0.79 0.007 0.0000
0.81 0.007 0.0000
0.83 0.007 0.0000
0.85 0.007 0.0000
0.87 0.007 0.0000
0.89 0.007 0.0000
0.91 0.007 0.0000
0.93 0.007 0.0000
0.95 0.007 0.0000
0.97 0.007 0.0000
0.99 0.007 0.0000
0.01 0.009 0.0000
0.03 0.009 0.0000
0.05 0.009 0.0000
0.07 0.009 0.0000
0.09 0.009 0.0000
0.11 0.009 0.0000
0.13 0.009 0.0000
0.15 0.009 0.0000
0.17 0.009 0.0000
0.19 0.009 0.0000
0.21 0.009 0.0000
0.23 0.009 0.0000
0.25 0.009 0.0000
0.27 0.009 0.0000
0.29 0.009 0.0000
0.31 0.009 0.0000
0.33 0.009 0.0000
0.35 0.009 0.0000
0.37 0.009 0.0000
0.39 0.009 0.0000
0.41 0.009 0.0000
0.43 0.009 0.0000
0.45 0.009 0.0000
0.47 0.009 0.0000
0.49 0.009 0.0000
0.51 0.009 0.0000
0.53 0.009 0.0000
0.55 0.009 0.0000
0.57 0.009 0.0000
0.59 0.009 0.0000
0.61 0.009 0.0000
0.63 0.009 0.0000
0.65 0.009 0.0000
0.67 0.009 0.0000
0.69 0.009 0.0000
0.71 0.009 0.0000
0.73 0.009 0.0000
0.75 0.009 0.0000
0.77 0.009 0.0000
0.79 0.009 0.0000
0.81 0.009 0.0000
0.83 0.009 0.0000
0.85 0.009 0.0000
0.87 0.009 0.0000
0.89 0.009 0.0000
0.91 0.009 0.0000
0.93 0.009 0.0000
0.95 0.009 0.0000
0.97 0.009 0.0000
0.99 0.009 0.0000
0.01 0.011 0.0000
0.03 0.011 0.0000
0.05 0.011 0.0000
0.07 0.011 0.0000
0.09 0.011 0.0000
0.11 0.011 0.0000
0.13 0.011 0.0000
0.15 0.011 0.0000
0.17 0.011 0.0000
0.19 0.011 0.0000
0.21 0.011 0.0000
0.23 0.011 0.0000
0.25 0.011 0.0000
0.27 0.011 0.0000
0.29 0.011 0.0000
0.31 0.011 0.0000
0.33 0.011 0.0000
0.35 0.011 0.0000
0.37 0.011 0.0000
0.39 0.011 0.0000
0.41 0.011 0.0000
0.43 0.011 0.0000
0.45 0.011 0.0000
0.47 0.011 0.0000
0.49 0.011 0.0000
0.51 0.011 0.0000
0.53 0.011 0.0000
0.55 0.011 0.0000
0.57 0.011 0.0000
0.59 0.011 0.0000
0.61 0.011 0.0000
0.63 0.011 0.0000
0.65 0.011 0.0000
0.67 0.011 0.0000
0.69 0.011 0.0000
0.71 0.011 0.0000
0.73 0.011 0.0000
0.75 0.011 0.0000
0.77 0.011 0.0000
0.79 0.011 0.0000
0.81 0.011 0.0000
0.83 0.011 0.0000
0.85 0.011 0.0000
0.87 0.011 0.0000
0.89 0.011 0.0000
0.91 0.011 0.0000
0.93 0.011 0.0000
0.95 0.011 0.0000
0.97 0.011 0.0000
0.99 0.011 0.0000
0.01 0.013 0.0000
0.03 0.013 0.0000
0.05 0.013 0.0000
0.07 0.013 0.0000
0.09 0.013 0.0000
0.11 0.013 0.0000
0.13 0.013 0.0000
0.15 0.013 0.0000
0.17 0.013 0.0000
0.19 0.013 0.0000
0.21 0.013 0.0000
0.23 0.013 0.0000
0.25 0.013 0.0000
0.27 0.013 0.0000
0.29 0.013 0.0000
0.31 0.013 0.0000
0.33 0.013 0.0000
0.35 0.013 0.0000
0.37 0.013 0.0000
0.39 0.013 0.0000
0.41 0.013 0.0000
0.43 0.013 0.0000
0.45 0.013 0.0000
0.47 0.013 0.0000
0.49 0.013 0.0000
0.51 0.013 0.0000
0.53 0.013 0.0000
0.55 0.013 0.0000
0.57 0.013 0.0000
0.59 0.013 0.0000
0.61 0.013 0.0000
0.63 0.013 0.0000
0.65 0.013 0.0000
0.67 0.013 0.0000
0.69 0.013 0.0000
0.71 0.013 0.0000
0.73 0.013 0.0000
0.75 0.013 0.0000
0.77 0.013 0.0000
0.79 0.013 0.0000
0.81 0.013 0.0000
0.83 0.013 0.0000
0.85 0.013 0.0000
0.87 0.013 0.0000
0.89 0.013 0.0000
0.91 0.013 0.0000
0.93 0.013 0.0000
0.95 0.013 0.0000
0.97 0.013 0.0000
0.99 0.013 0.0000
0.01 0.015 0.0000
0.03 0.015 0.0000
0.05 0.015 0.0000
0.07 0.015 0.0000
0.09 0.015 0.0000
0.11 0.015 0.0000
0.13 0.015 0.0000
0.15 0.015 0.0000
0.17 0.015 0.0000
0.19 0.015 0.0000
0.21 0.015 0.0000
0.23 0.015 0.0000
0.25 0.015 0.0000
0.27 0.015 0.0000
0.29 0.015 0.0000
0.31 0.015 0.0000
0.33 0.015 0.0000
0.35 0.015 0.0000
0.37 0.015 0.0000
0.39 0.015 0.0000
0.41 0.015 0.0000
0.43 0.015 0.0000
0.45 0.015 0.0000
0.47 0.015 0.0000
0.49 0.015 0.0000
0.51 0.015 0.0000
0.53 0.015 0.0000
0.55 0.015 0.0000
0.57 0.015 0.0000
0.59 0.015 0.0000
0.61 0.015 0.0000
0.63 0.015 0.0000
0.65 0.015 0.0000
0.67 0.015 0.0000
0.69 0.015 0.0000
0.71 0.015 0.0000
0.73 0.015 0.0000
0.75 0.015 0.0000
0.77 0.015 0.0000
0.79 0.015 0.0000
0.81 0.015 0.0000
0.83 0.015 0.0000
0.85 0.015 0.0000
0.87 0.015 0.0000
0.89 0.015 0.0000
0.91 0.015 0.0000
0.93 0.015 0.0000
0.95 0.015 0.0000
0.97 0.015 0.0000
0.99 0.015 0.0000
0.01 0.017 0.0000
0.03 0.017 0.0000
0.05 0.017 0.0000
0.07 0.017 0.0000
0.09 0.017 0.0000
0.11 0.017 0.0000
0.13 0.017 0.0000
0.15 0.017 0.0000
0.17 0.017 0.0000
0.19 0.017 0.0000
0.21 0.017 0.0000
0.23 0.017 0.0000
0.25 0.017 0.0000
0.27 0.017 0.0000
0.29 0.017 0.0000
0.31 0.017 0.0000
0.33 0.017 0.0000
0.35 0.017 0.0000
0.37 0.017 0.0000
0.39 0.017 0.0000
0.41 0.017 0.0000
0.43 0.017 0.0000
0.45 0.017 0.0000
0.47 0.017 0.0000
0.49 0.017 0.0000
0.51 0.017 0.0000
0.53 0.017 0.0000
0.55 0.017 0.0000
0.57 0.017 0.0000
0.59 0.017 0.0000
0.61 0.017 0.0000
0.63 0.017 0.0000
0.65 0.017 0.0000
0.67 0.017 0.0000
0.69 0.017 0.0000
0.71 0.017 0.0000
0.73 0.017 0.0000
0.75 0.017 0.0000
0.77 0.017 0.0000
0.79 0.017 0.0000
0.81 0.017 0.0000
0.83 0.017 0.0000
0.85 0.017 0.0000
0.87 0.017 0.0000
0.89 0.017 0.0000
0.91 0.017 0.0000
0.93 0.017 0.0000
0.95 0.017 0.0000
0.97 0.017 0.0000
0.99 0.017 0.0000
0.01 0.019 0.0000
0.03 0.019 0.0000
0.05 0.019 0.0000
0.07 0.019 0.0000
0.09 0.019 0.0000
0.11 0.019 0.0000
0.13 0.019 0.0000
0.15 0.019 0.0000
0.17 0.019 0.0000
0.19 0.019 0.0000
0.21 0.019 0.0000
0.23 0.019 0.0000
0.25 0.019 0.0000
0.27 0.019 0.0000
0.29 0.019 0.0000
0.31 0.019 0.0000
0.33 0.019 0.0000
0.35 0.019 0.0000
0.37 0.019 0.0000
0.39 0.019 0.0000
0.41 0.019 0.0000
0.43 0.019 0.0000
0.45 0.019 0.0000
0.47 0.019 0.0000
0.49 0.019 0.0000
0.51 0.019 0.0000
0.53 0.019 0.0000
0.55 0.019 0.0000
0.57 0.019 0.0000
0.59 0.019 0.0000
0.61 0.019 0.0000
0.63 0.019 0.0000
0.65 0.019 0.0000
0.67 0.019 0.0000
0.69 0.019 0.0000
0.71 0.019 0.0000
0.73 0.019 0.0000
0.75 0.019 0.0000
0.77 0.019 0.0000
0.79 0.019 0.0000
0.81 0.019 0.0000
0.83 0.019 0.0000
0.85 0.019 0.0000
0.87 0.019 0.0000
0.89 0.019 0.0000
0.91 0.019 0.0000
0.93 0.019 0.0000
0.95 0.019 0.0000
0.97 0.019 0.0000
0.99 0.019 0.0000
0.01 0.021 0.0000
0.03 0.021 0.0000
0.05 0.021 0.0000
0.07 0.021 0.0000
0.09 0.021 0.0000
0.11 0.021 0.0000
0.13 0.021 0.0000
0.15 0.021 0.0000
0.17 0.021 0.0000
0.19 0.021 0.0000
0.21 0.021 0.0000
0.23 0.021 0.0000
0.25 0.021 0.0000
0.27 0.021 0.0000
0.29 0.021 0.0000
0.31 0.021 0.0000
0.33 0.021 0.0000
0.35 0.021 0.0000
0.37 0.021 0.0000
0.39 0.021 0.0000
0.41 0.021 0.0000
0.43 0.021 0.0000
0.45 0.021 0.0000
0.47 0.021 0.0000
0.49 0.021 0.0000
0.51 0.021 0.0000
0.53 0.021 0.0000
0.55 0.021 0.0000
0.57 0.021 0.0000
0.59 0.021 0.0000
0.61 0.021 0.0000
0.63 0.021 0.0000
0.65 0.021 0.0000
0.67 0.021 0.0000
0.69 0.021 0.0000
0.71 0.021 0.0000
0.73 0.021 0.0000
0.75 0.021 0.0000
0.77 0.021 0.0000
0.79 0.021 0.0000
0.81 0.021 0.0000
0.83 0.021 0.0000
0.85 0.021 0.0000
0.87 0.021 0.0000
0.89 0.021 0.0000
0.91 0.021 0.0000
0.93 0.021 0.0000
0.95 0.021 0.0000
0.97 0.021 0.0000
[...]
POINT_DATA 2500
VECTORS velocity float
0.0178 0.0082 0.0000
0.0106 0.0007 0.0000
0.0081 0.0002 0.0000
0.0069 0.0001 0.0000
0.0062 0.0001 0.0000
0.0057 0.0 0.0000
0.0054 0.0 0.0000
0.0051 0.0 0.0000
0.0049 0.0 0.0000
0.0047 0.0 0.0000
0.0046 0.0 0.0000
0.0045 0.0 0.0000
0.0044 0.0 0.0000
0.0043 0.0 0.0000
0.0042 0.0 0.0000
0.0041 0.0 0.0000
0.0041 0.0 0.0000
0.004 0.0 0.0000
0.0039 0.0 0.0000
0.0039 0.0 0.0000
0.0039 0.0 0.0000
0.0038 0.0 0.0000
0.0038 0.0 0.0000
0.0037 0.0 0.0000
0.0037 0.0 0.0000
0.0037 0.0 0.0000
0.0036 0.0 0.0000
0.0036 0.0 0.0000
0.0036 0.0 0.0000
0.0036 0.0 0.0000
0.0035 0.0 0.0000
0.0035 0.0 0.0000
0.0035 0.0 0.0000
0.0035 0.0 0.0000
0.0035 0.0 0.0000
0.0034 0.0 0.0000
0.0034 0.0 0.0000
0.0034 0.0 0.0000
0.0034 0.0 0.0000
0.0034 0.0 0.0000
0.0034 0.0 0.0000
0.0034 0.0 0.0000
0.0033 0.0 0.0000
0.0033 0.0 0.0000
0.0033 0.0 0.0000
0.0033 0.0 0.0000
0.0033 0.0 0.0000
0.0033 0.0 0.0000
0.0033 0.0 0.0000
0.0033 0.0 0.0000
0.0464 0.0136 0.0000
0.0299 0.0024 0.0000
0.0235 0.0009 0.0000
0.0202 0.0005 0.0000
0.0181 0.0003 0.0000
0.0167 0.0002 0.0000
0.0157 0.0001 0.0000
0.015 0.0001 0.0000
0.0144 0.0001 0.0000
0.0139 0.0001 0.0000
0.0135 0.0001 0.0000
0.0132 0.0 0.0000
0.0129 0.0 0.0000
0.0126 0.0 0.0000
0.0124 0.0 0.0000
0.0121 0.0 0.0000
0.012 0.0 0.0000
0.0118 0.0 0.0000
0.0116 0.0 0.0000
0.0115 0.0 0.0000
0.0113 0.0 0.0000
0.0112 0.0 0.0000
0.0111 0.0 0.0000
0.011 0.0 0.0000
0.0109 0.0 0.0000
0.0108 0.0 0.0000
0.0107 0.0 0.0000
0.0106 0.0 0.0000
0.0106 0.0 0.0000
0.0105 0.0 0.0000
0.0104 0.0 0.0000
0.0104 0.0 0.0000
0.0103 0.0 0.0000
0.0102 0.0 0.0000
0.0102 0.0 0.0000
0.0101 0.0 0.0000
0.0101 0.0 0.0000
0.01 0.0 0.0000
0.01 0.0 0.0000
0.01 0.0 0.0000
0.0099 0.0 0.0000
0.0099 0.0 0.0000
0.0099 0.0 0.0000
0.0099 0.0 0.0000
0.0098 0.0 0.0000
0.0098 0.0 0.0000
0.0098 0.0 0.0000
0.0098 0.0 0.0000
0.0098 0.0 0.0000
0.0097 0.0 0.0000
0.0678 0.0168 0.0000
0.0472 0.0044 0.0000
0.0379 0.0018 0.0000
0.0328 0.001 0.0000
0.0296 0.0006 0.0000
0.0273 0.0004 0.0000
0.0257 0.0003 0.0000
0.0245 0.0002 0.0000
0.0236 0.0002 0.0000
0.0228 0.0001 0.0000
0.0221 0.0001 0.0000
0.0216 0.0001 0.0000
0.0211 0.0001 0.0000
0.0206 0.0001 0.0000
0.0203 0.0001 0.0000
0.0199 0.0001 0.0000
0.0196 0.0001 0.0000
0.0193 0.0001 0.0000
0.0191 0.0 0.0000
0.0189 0.0 0.0000
0.0186 0.0 0.0000
0.0184 0.0 0.0000
0.0182 0.0 0.0000
0.0181 0.0 0.0000
0.0179 0.0 0.0000
0.0178 0.0 0.0000
0.0176 0.0 0.0000
0.0175 0.0 0.0000
0.0174 0.0 0.0000
0.0172 0.0 0.0000
0.0171 0.0 0.0000
0.017 0.0 0.0000
0.0169 0.0 0.0000
0.0168 0.0 0.0000
0.0168 0.0 0.0000
0.0167 0.0 0.0000
0.0166 0.0 0.0000
0.0165 0.0 0.0000
0.0165 0.0 0.0000
0.0164 0.0 0.0000
0.0164 0.0 0.0000
0.0163 0.0 0.0000
0.0163 0.0 0.0000
0.0162 0.0 0.0000
0.0162 0.0 0.0000
0.0162 0.0 0.0000
0.0161 0.0 0.0000
0.0161 0.0 0.0000
0.0161 0.0 0.0000
0.016 0.0 0.0000
0.0831 0.0185 0.0000
0.0623 0.0065 0.0000
0.0512 0.0029 0.0000
0.0447 0.0016 0.0000
0.0404 0.001 0.0000
0.0375 0.0007 0.0000
0.0353 0.0005 0.0000
0.0337 0.0004 0.0000
0.0324 0.0003 0.0000
0.0313 0.0003 0.0000
0.0304 0.0002 0.0000
0.0297 0.0002 0.0000
0.029 0.0002 0.0000
0.0284 0.0001 0.0000
0.0279 0.0001 0.0000
0.0275 0.0001 0.0000
0.027 0.0001 0.0000
0.0267 0.0001 0.0000
0.0263 0.0001 0.0000
0.026 0.0001 0.0000
0.0257 0.0001 0.0000
0.0254 0.0001 0.0000
0.0252 0.0001 0.0000
0.0249 0.0001 0.0000
0.0247 0.0001 0.0000
0.0245 0.0 0.0000
0.0243 0.0 0.0000
0.0241 0.0 0.0000
0.024 0.0 0.0000
0.0238 0.0 0.0000
0.0237 0.0 0.0000
0.0235 0.0 0.0000
0.0234 0.0 0.0000
0.0233 0.0 0.0000
0.0232 0.0 0.0000
0.0231 0.0 0.0000
0.023 0.0 0.0000
0.0229 0.0 0.0000
0.0228 0.0 0.0000
0.0227 0.0 0.0000
0.0226 0.0 0.0000
0.0226 0.0 0.0000
0.0225 0.0 0.0000
0.0224 0.0 0.0000
0.0224 0.0 0.0000
0.0223 0.0 0.0000
0.0223 0.0 0.0000
0.0223 0.0 0.0000
0.0222 0.0 0.0000
0.0222 0.0 0.0000
0.0937 0.0191 0.0000
0.0751 0.0084 0.0000
0.0632 0.0041 0.0000
0.0557 0.0024 0.0000
0.0507 0.0015 0.0000
0.0472 0.0011 0.0000
0.0445 0.0008 0.0000
0.0425 0.0006 0.0000
0.0409 0.0005 0.0000
0.0396 0.0004 0.0000
0.0385 0.0003 0.0000
0.0375 0.0003 0.0000
0.0367 0.0002 0.0000
0.036 0.0002 0.0000
0.0353 0.0002 0.0000
0.0347 0.0002 0.0000
0.0342 0.0001 0.0000
0.0338 0.0001 0.0000
0.0333 0.0001 0.0000
0.0329 0.0001 0.0000
0.0326 0.0001 0.0000
0.0322 0.0001 0.0000
0.0319 0.0001 0.0000
0.0316 0.0001 0.0000
0.0313 0.0001 0.0000
0.0311 0.0001 0.0000
0.0308 0.0001 0.0000
0.0306 0.0001 0.0000
0.0304 0.0001 0.0000
0.0302 0.0001 0.0000
0.03 0.0001 0.0000
0.0299 0.0001 0.0000
0.0297 0.0 0.0000
0.0295 0.0 0.0000
0.0294 0.0 0.0000
0.0293 0.0 0.0000
0.0291 0.0 0.0000
0.029 0.0 0.0000
0.0289 0.0 0.0000
0.0288 0.0 0.0000
0.0287 0.0 0.0000
0.0286 0.0 0.0000
0.0286 0.0 0.0000
0.0285 0.0 0.0000
0.0284 0.0 0.0000
0.0284 0.0 0.0000
0.0283 0.0 0.0000
0.0283 0.0 0.0000
0.0283 0.0 0.0000
0.0282 0.0 0.0000
0.1008 0.019 0.0000
0.0855 0.0099 0.0000
0.0738 0.0053 0.0000
0.0658 0.0032 0.0000
0.0603 0.0021 0.0000
0.0563 0.0015 0.0000
0.0532 0.0011 0.0000
0.0509 0.0008 0.0000
0.049 0.0007 0.0000
0.0474 0.0005 0.0000
0.0461 0.0004 0.0000
0.045 0.0004 0.0000
0.0441 0.0003 0.0000
0.0432 0.0003 0.0000
0.0425 0.0003 0.0000
0.0418 0.0002 0.0000
0.0412 0.0002 0.0000
0.0406 0.0002 0.0000
0.0401 0.0002 0.0000
0.0396 0.0002 0.0000
0.0392 0.0001 0.0000
0.0388 0.0001 0.0000
0.0384 0.0001 0.0000
0.0381 0.0001 0.0000
0.0378 0.0001 0.0000
0.0374 0.0001 0.0000
0.0372 0.0001 0.0000
0.0369 0.0001 0.0000
0.0367 0.0001 0.0000
0.0364 0.0001 0.0000
0.0362 0.0001 0.0000
0.036 0.0001 0.0000
0.0358 0.0001 0.0000
0.0356 0.0001 0.0000
0.0354 0.0001 0.0000
0.0353 0.0001 0.0000
0.0351 0.0001 0.0000
0.035 0.0 0.0000
0.0349 0.0 0.0000
0.0348 0.0 0.0000
0.0347 0.0 0.0000
0.0346 0.0 0.0000
0.0345 0.0 0.0000
0.0344 0.0 0.0000
0.0343 0.0 0.0000
0.0343 0.0 0.0000
0.0342 0.0 0.0000
0.0342 0.0 0.0000
0.0341 0.0 0.0000
0.0341 0.0 0.0000
0.1054 0.0185 0.0000
0.0938 0.0111 0.0000
0.083 0.0064 0.0000
0.0749 0.004 0.0000
0.0691 0.0027 0.0000
0.0647 0.0019 0.0000
0.0614 0.0014 0.0000
0.0588 0.0011 0.0000
0.0567 0.0009 0.0000
0.055 0.0007 0.0000
0.0535 0.0006 0.0000
0.0522 0.0005 0.0000
0.0511 0.0004 0.0000
0.0502 0.0004 0.0000
0.0493 0.0003 0.0000
0.0485 0.0003 0.0000
0.0478 0.0003 0.0000
0.0472 0.0003 0.0000
0.0466 0.0002 0.0000
0.0461 0.0002 0.0000
0.0456 0.0002 0.0000
0.0451 0.0002 0.0000
0.0447 0.0002 0.0000
0.0443 0.0002 0.0000
0.044 0.0001 0.0000
0.0436 0.0001 0.0000
0.0433 0.0001 0.0000
0.043 0.0001 0.0000
0.0427 0.0001 0.0000
0.0424 0.0001 0.0000
0.0422 0.0001 0.0000
0.0419 0.0001 0.0000
0.0417 0.0001 0.0000
0.0415 0.0001 0.0000
0.0413 0.0001 0.0000
0.0412 0.0001 0.0000
0.041 0.0001 0.0000
0.0408 0.0001 0.0000
0.0407 0.0001 0.0000
0.0406 0.0001 0.0000
0.0404 0.0 0.0000
0.0403 0.0 0.0000
0.0402 0.0 0.0000
0.0401 0.0 0.0000
0.0401 0.0 0.0000
0.04 0.0 0.0000
0.0399 0.0 0.0000
0.0399 0.0 0.0000
0.0398 0.0 0.0000
0.0398 0.0 0.0000
0.1083 0.0177 0.0000
0.1001 0.0119 0.0000
0.0907 0.0073 0.0000
0.083 0.0047 0.0000
0.0771 0.0033 0.0000
0.0726 0.0023 0.0000
0.0691 0.0018 0.0000
0.0663 0.0014 0.0000
0.064 0.0011 0.0000
0.0621 0.0009 0.0000
0.0605 0.0008 0.0000
0.0591 0.0006 0.0000
0.0579 0.0006 0.0000
0.0568 0.0005 0.0000
0.0559 0.0004 0.0000
0.055 0.0004 0.0000
0.0543 0.0004 0.0000
0.0536 0.0003 0.0000
0.0529 0.0003 0.0000
0.0523 0.0003 0.0000
0.0518 0.0003 0.0000
0.0513 0.0002 0.0000
0.0508 0.0002 0.0000
0.0504 0.0002 0.0000
0.05 0.0002 0.0000
0.0496 0.0002 0.0000
0.0492 0.0002 0.0000
0.0489 0.0002 0.0000
0.0486 0.0001 0.0000
0.0483 0.0001 0.0000
0.048 0.0001 0.0000
0.0477 0.0001 0.0000
0.0475 0.0001 0.0000
0.0472 0.0001 0.0000
0.047 0.0001 0.0000
0.0468 0.0001 0.0000
0.0467 0.0001 0.0000
0.0465 0.0001 0.0000
0.0463 0.0001 0.0000
0.0462 0.0001 0.0000
0.0461 0.0001 0.0000
0.0459 0.0001 0.0000
0.0458 0.0001 0.0000
0.0457 0.0 0.0000
0.0456 0.0 0.0000
0.0456 0.0 0.0000
0.0455 0.0 0.0000
0.0454 0.0 0.0000
0.0454 0.0 0.0000
0.0453 0.0 0.0000
0.1099 0.0167 0.0000
0.1049 0.0124 0.0000
0.097 0.0081 0.0000
0.0899 0.0054 0.0000
0.0842 0.0038 0.0000
0.0797 0.0028 0.0000
0.0761 0.0021 0.0000
0.0732 0.0017 0.0000
0.0708 0.0013 0.0000
0.0688 0.0011 0.0000
0.0671 0.0009 0.0000
0.0656 0.0008 0.0000
0.0643 0.0007 0.0000
0.0632 0.0006 0.0000
0.0622 0.0005 0.0000
0.0612 0.0005 0.0000
0.0604 0.0004 0.0000
0.0596 0.0004 0.0000
0.059 0.0004 0.0000
0.0583 0.0003 0.0000
0.0577 0.0003 0.0000
0.0572 0.0003 0.0000
0.0567 0.0003 0.0000
0.0562 0.0002 0.0000
0.0557 0.0002 0.0000
0.0553 0.0002 0.0000
0.0549 0.0002 0.0000
0.0546 0.0002 0.0000
0.0542 0.0002 0.0000
0.0539 0.0002 0.0000
0.0536 0.0002 0.0000
0.0533 0.0001 0.0000
0.053 0.0001 0.0000
0.0528 0.0001 0.0000
0.0526 0.0001 0.0000
0.0523 0.0001 0.0000
0.0521 0.0001 0.0000
0.052 0.0001 0.0000
0.0518 0.0001 0.0000
0.0516 0.0001 0.0000
0.0515 0.0001 0.0000
0.0514 0.0001 0.0000
0.0512 0.0001 0.0000
0.0511 0.0001 0.0000
0.051 0.0001 0.0000
0.051 0.0 0.0000
0.0509 0.0 0.0000
0.0508 0.0 0.0000
0.0508 0.0 0.0000
0.0507 0.0 0.0000
0.1107 0.0156 0.0000
0.1083 0.0126 0.0000
0.1021 0.0087 0.0000
0.0959 0.0061 0.0000
0.0905 0.0044 0.0000
0.0862 0.0032 0.0000
0.0826 0.0025 0.0000
0.0797 0.002 0.0000
0.0772 0.0016 0.0000
0.0751 0.0013 0.0000
0.0733 0.0011 0.0000
0.0718 0.001 0.0000
0.0704 0.0008 0.0000
0.0692 0.0007 0.0000
0.0681 0.0007 0.0000
0.0672 0.0006 0.0000
0.0663 0.0005 0.0000
0.0655 0.0005 0.0000
0.0647 0.0004 0.0000
0.064 0.0004 0.0000
0.0634 0.0004 0.0000
0.0628 0.0003 0.0000
0.0623 0.0003 0.0000
0.0618 0.0003 0.0000
0.0613 0.0003 0.0000
0.0609 0.0003 0.0000
0.0604 0.0002 0.0000
0.06 0.0002 0.0000
0.0597 0.0002 0.0000
0.0593 0.0002 0.0000
0.059 0.0002 0.0000
0.0587 0.0002 0.0000
0.0584 0.0002 0.0000
0.0582 0.0002 0.0000
0.0579 0.0001 0.0000
0.0577 0.0001 0.0000
0.0575 0.0001 0.0000
0.0573 0.0001 0.0000
0.0571 0.0001 0.0000
0.0569 0.0001 0.0000
0.0568 0.0001 0.0000
0.0566 0.0001 0.0000
0.0565 0.0001 0.0000
0.0564 0.0001 0.0000
0.0563 0.0001 0.0000
0.0562 0.0001 0.0000
0.0561 0.0 0.0000
0.056 0.0 0.0000
0.056 0.0 0.0000
0.0559 0.0 0.0000
0.1109 0.0145 0.0000
0.1106 0.0127 0.0000
0.106 0.0092 0.0000
0.1008 0.0066 0.0000
0.096 0.0048 0.0000
0.0919 0.0036 0.0000
0.0884 0.0028 0.0000
0.0855 0.0022 0.0000
0.0831 0.0018 0.0000
0.081 0.0015 0.0000
0.0792 0.0013 0.0000
0.0776 0.0011 0.0000
0.0762 0.001 0.0000
0.0749 0.0009 0.0000
0.0738 0.0008 0.0000
0.0728 0.0007 0.0000
0.0719 0.0006 0.0000
0.071 0.0006 0.0000
0.0702 0.0005 0.0000
0.0695 0.0005 0.0000
0.0689 0.0004 0.0000
0.0682 0.0004 0.0000
0.0677 0.0004 0.0000
0.0671 0.0004 0.0000
0.0666 0.0003 0.0000
0.0662 0.0003 0.0000
0.0657 0.0003 0.0000
0.0653 0.0003 0.0000
0.0649 0.0003 0.0000
0.0646 0.0002 0.0000
0.0642 0.0002 0.0000
0.0639 0.0002 0.0000
0.0636 0.0002 0.0000
0.0633 0.0002 0.0000
0.0631 0.0002 0.0000
0.0628 0.0002 0.0000
0.0626 0.0002 0.0000
0.0624 0.0001 0.0000
0.0622 0.0001 0.0000
0.062 0.0001 0.0000
0.0619 0.0001 0.0000
0.0617 0.0001 0.0000
0.0616 0.0001 0.0000
0.0615 0.0001 0.0000
0.0614 0.0001 0.0000
0.0613 0.0001 0.0000
0.0612 0.0001 0.0000
0.0611 0.0001 0.0000
0.061 0.0 0.0000
0.061 0.0 0.0000
0.1107 0.0134 0.0000
0.1121 0.0125 0.0000
0.109 0.0095 0.0000
0.1048 0.007 0.0000
0.1006 0.0053 0.0000
0.0969 0.004 0.0000
0.0936 0.0031 0.0000
0.0909 0.0025 0.0000
0.0885 0.0021 0.0000
0.0864 0.0017 0.0000
0.0846 0.0015 0.0000
0.083 0.0013 0.0000
0.0816 0.0011 0.0000
0.0803 0.001 0.0000
0.0791 0.0009 0.0000
0.0781 0.0008 0.0000
0.0771 0.0007 0.0000
0.0763 0.0007 0.0000
0.0755 0.0006 0.0000
0.0747 0.0006 0.0000
0.0741 0.0005 0.0000
0.0734 0.0005 0.0000
0.0728 0.0004 0.0000
0.0723 0.0004 0.0000
0.0718 0.0004 0.0000
0.0713 0.0004 0.0000
0.0708 0.0003 0.0000
0.0704 0.0003 0.0000
0.07 0.0003 0.0000
0.0696 0.0003 0.0000
0.0692 0.0003 0.0000
0.0689 0.0002 0.0000
0.0686 0.0002 0.0000
0.0683 0.0002 0.0000
0.068 0.0002 0.0000
0.0678 0.0002 0.0000
0.0676 0.0002 0.0000
0.0673 0.0002 0.0000
0.0671 0.0001 0.0000
0.067 0.0001 0.0000
0.0668 0.0001 0.0000
0.0666 0.0001 0.0000
0.0665 0.0001 0.0000
0.0664 0.0001 0.0000
0.0663 0.0001 0.0000
0.0662 0.0001 0.0000
0.0661 0.0001 0.0000
0.066 0.0001 0.0000
0.0659 0.0001 0.0000
0.0659 0.0 0.0000
0.1103 0.0124 0.0000
0.113 0.0123 0.0000
0.1112 0.0097 0.0000
0.108 0.0073 0.0000
0.1045 0.0056 0.0000
0.1012 0.0043 0.0000
0.0982 0.0034 0.0000
0.0956 0.0028 0.0000
0.0933 0.0023 0.0000
0.0913 0.0019 0.0000
0.0895 0.0016 0.0000
0.088 0.0014 0.0000
0.0866 0.0013 0.0000
0.0853 0.0011 0.0000
0.0841 0.001 0.0000
0.0831 0.0009 0.0000
0.0821 0.0008 0.0000
0.0813 0.0007 0.0000
0.0804 0.0007 0.0000
0.0797 0.0006 0.0000
0.079 0.0006 0.0000
0.0783 0.0005 0.0000
0.0777 0.0005 0.0000
0.0772 0.0005 0.0000
0.0766 0.0004 0.0000
0.0761 0.0004 0.0000
0.0757 0.0004 0.0000
0.0752 0.0004 0.0000
0.0748 0.0003 0.0000
0.0744 0.0003 0.0000
0.0741 0.0003 0.0000
0.0737 0.0003 0.0000
0.0734 0.0003 0.0000
0.0731 0.0002 0.0000
0.0728 0.0002 0.0000
0.0726 0.0002 0.0000
0.0723 0.0002 0.0000
0.0721 0.0002 0.0000
0.0719 0.0002 0.0000
0.0717 0.0002 0.0000
0.0715 0.0001 0.0000
0.0714 0.0001 0.0000
0.0712 0.0001 0.0000
0.0711 0.0001 0.0000
0.071 0.0001 0.0000
0.0709 0.0001 0.0000
0.0708 0.0001 0.0000
0.0707 0.0001 0.0000
0.0706 0.0001 0.0000
0.0706 0.0001 0.0000
0.1097 0.0114 0.0000
0.1133 0.0119 0.0000
0.1128 0.0097 0.0000
0.1105 0.0076 0.0000
0.1077 0.0059 0.0000
0.1049 0.0046 0.0000
0.1022 0.0037 0.0000
0.0998 0.003 0.0000
0.0977 0.0025 0.0000
0.0958 0.0021 0.0000
0.0941 0.0018 0.0000
0.0926 0.0016 0.0000
0.0912 0.0014 0.0000
0.0899 0.0012 0.0000
0.0888 0.0011 0.0000
0.0878 0.001 0.0000
0.0868 0.0009 0.0000
0.0859 0.0008 0.0000
0.0851 0.0008 0.0000
0.0844 0.0007 0.0000
0.0837 0.0007 0.0000
0.083 0.0006 0.0000
0.0824 0.0006 0.0000
0.0818 0.0005 0.0000
0.0813 0.0005 0.0000
0.0808 0.0005 0.0000
0.0803 0.0004 0.0000
0.0799 0.0004 0.0000
0.0795 0.0004 0.0000
0.0791 0.0004 0.0000
0.0787 0.0003 0.0000
0.0783 0.0003 0.0000
0.078 0.0003 0.0000
0.0777 0.0003 0.0000
0.0774 0.0003 0.0000
0.0772 0.0002 0.0000
0.0769 0.0002 0.0000
0.0767 0.0002 0.0000
0.0765 0.0002 0.0000
0.0763 0.0002 0.0000
0.0761 0.0002 0.0000
0.0759 0.0001 0.0000
0.0758 0.0001 0.0000
0.0757 0.0001 0.0000
0.0755 0.0001 0.0000
0.0754 0.0001 0.0000
0.0753 0.0001 0.0000
0.0753 0.0001 0.0000
0.0752 0.0001 0.0000
0.0751 0.0001 0.0000
0.1091 0.0105 0.0000
0.1134 0.0115 0.0000
0.1138 0.0097 0.0000
0.1124 0.0077 0.0000
0.1102 0.0061 0.0000
0.1079 0.0049 0.0000
0.1056 0.0039 0.0000
0.1035 0.0032 0.0000
0.1016 0.0027 0.0000
0.0998 0.0023 0.0000
0.0982 0.002 0.0000
0.0968 0.0017 0.0000
0.0955 0.0015 0.0000
0.0942 0.0014 0.0000
0.0931 0.0012 0.0000
0.0921 0.0011 0.0000
0.0912 0.001 0.0000
0.0903 0.0009 0.0000
0.0895 0.0008 0.0000
0.0888 0.0008 0.0000
0.0881 0.0007 0.0000
0.0874 0.0007 0.0000
0.0868 0.0006 0.0000
0.0863 0.0006 0.0000
0.0857 0.0005 0.0000
0.0852 0.0005 0.0000
0.0847 0.0005 0.0000
0.0843 0.0004 0.0000
0.0839 0.0004 0.0000
0.0835 0.0004 0.0000
0.0831 0.0004 0.0000
0.0827 0.0003 0.0000
0.0824 0.0003 0.0000
0.0821 0.0003 0.0000
0.0818 0.0003 0.0000
0.0815 0.0003 0.0000
0.0813 0.0002 0.0000
0.0811 0.0002 0.0000
0.0809 0.0002 0.0000
0.0807 0.0002 0.0000
0.0805 0.0002 0.0000
0.0803 0.0002 0.0000
0.0802 0.0001 0.0000
0.08 0.0001 0.0000
0.0799 0.0001 0.0000
0.0798 0.0001 0.0000
0.0797 0.0001 0.0000
0.0796 0.0001 0.0000
0.0796 0.0001 0.0000
0.0795 0.0001 0.0000
0.1084 0.0097 0.0000
0.1131 0.011 0.0000
0.1144 0.0095 0.0000
0.1137 0.0078 0.0000
0.1122 0.0062 0.0000
0.1104 0.005 0.0000
0.1085 0.0041 0.0000
0.1067 0.0034 0.0000
0.105 0.0029 0.0000
0.1034 0.0025 0.0000
0.1019 0.0021 0.0000
0.1006 0.0019 0.0000
0.0993 0.0016 0.0000
0.0982 0.0015 0.0000
0.0971 0.0013 0.0000
0.0962 0.0012 0.0000
0.0953 0.0011 0.0000
0.0944 0.001 0.0000
0.0936 0.0009 0.0000
0.0929 0.0009 0.0000
0.0922 0.0008 0.0000
0.0916 0.0007 0.0000
0.091 0.0007 0.0000
0.0904 0.0006 0.0000
0.0899 0.0006 0.0000
0.0894 0.0006 0.0000
0.0889 0.0005 0.0000
0.0885 0.0005 0.0000
0.0881 0.0005 0.0000
0.0877 0.0004 0.0000
0.0873 0.0004 0.0000
0.0869 0.0004 0.0000
0.0866 0.0004 0.0000
0.0863 0.0003 0.0000
0.086 0.0003 0.0000
0.0858 0.0003 0.0000
0.0855 0.0003 0.0000
0.0853 0.0003 0.0000
0.0851 0.0002 0.0000
0.0849 0.0002 0.0000
0.0847 0.0002 0.0000
0.0845 0.0002 0.0000
0.0844 0.0002 0.0000
0.0842 0.0001 0.0000
0.0841 0.0001 0.0000
0.084 0.0001 0.0000
0.0839 0.0001 0.0000
0.0838 0.0001 0.0000
0.0838 0.0001 0.0000
0.0837 0.0001 0.0000
0.1078 0.0089 0.0000
0.1127 0.0105 0.0000
0.1146 0.0094 0.0000
0.1146 0.0078 0.0000
0.1138 0.0063 0.0000
0.1124 0.0052 0.0000
0.1109 0.0043 0.0000
0.1094 0.0036 0.0000
0.1079 0.003 0.0000
0.1065 0.0026 0.0000
0.1052 0.0023 0.0000
0.104 0.002 0.0000
0.1029 0.0018 0.0000
0.1018 0.0016 0.0000
0.1008 0.0014 0.0000
0.0999 0.0013 0.0000
0.099 0.0012 0.0000
0.0982 0.0011 0.0000
0.0975 0.001 0.0000
0.0968 0.0009 0.0000
0.0961 0.0009 0.0000
0.0955 0.0008 0.0000
0.0949 0.0007 0.0000
0.0944 0.0007 0.0000
0.0938 0.0006 0.0000
0.0934 0.0006 0.0000
0.0929 0.0006 0.0000
0.0925 0.0005 0.0000
0.092 0.0005 0.0000
0.0917 0.0005 0.0000
0.0913 0.0004 0.0000
0.091 0.0004 0.0000
0.0906 0.0004 0.0000
0.0903 0.0004 0.0000
0.09 0.0003 0.0000
0.0898 0.0003 0.0000
0.0895 0.0003 0.0000
0.0893 0.0003 0.0000
0.0891 0.0003 0.0000
0.0889 0.0002 0.0000
0.0887 0.0002 0.0000
0.0886 0.0002 0.0000
0.0884 0.0002 0.0000
0.0883 0.0002 0.0000
0.0882 0.0001 0.0000
0.088 0.0001 0.0000
0.0879 0.0001 0.0000
0.0879 0.0001 0.0000
0.0878 0.0001 0.0000
0.0877 0.0001 0.0000
0.1071 0.0082 0.0000
0.1122 0.01 0.0000
0.1146 0.0091 0.0000
0.1152 0.0077 0.0000
0.1149 0.0064 0.0000
0.114 0.0053 0.0000
0.1129 0.0044 0.0000
0.1117 0.0037 0.0000
0.1105 0.0031 0.0000
0.1093 0.0027 0.0000
0.1081 0.0024 0.0000
0.107 0.0021 0.0000
0.106 0.0019 0.0000
0.105 0.0017 0.0000
0.1041 0.0015 0.0000
0.1033 0.0014 0.0000
0.1025 0.0013 0.0000
0.1017 0.0012 0.0000
0.101 0.0011 0.0000
0.1004 0.001 0.0000
0.0997 0.0009 0.0000
0.0991 0.0009 0.0000
0.0986 0.0008 0.0000
0.0981 0.0007 0.0000
0.0976 0.0007 0.0000
0.0971 0.0007 0.0000
0.0966 0.0006 0.0000
0.0962 0.0006 0.0000
0.0958 0.0005 0.0000
0.0954 0.0005 0.0000
0.0951 0.0005 0.0000
0.0947 0.0005 0.0000
0.0944 0.0004 0.0000
0.0941 0.0004 0.0000
0.0939 0.0004 0.0000
0.0936 0.0003 0.0000
0.0934 0.0003 0.0000
0.0931 0.0003 0.0000
0.0929 0.0003 0.0000
0.0927 0.0003 0.0000
0.0926 0.0002 0.0000
0.0924 0.0002 0.0000
0.0923 0.0002 0.0000
0.0921 0.0002 0.0000
0.092 0.0002 0.0000
0.0919 0.0001 0.0000
0.0918 0.0001 0.0000
0.0917 0.0001 0.0000
0.0916 0.0001 0.0000
0.0916 0.0001 0.0000
0.1065 0.0075 0.0000
0.1116 0.0095 0.0000
0.1144 0.0088 0.0000
0.1155 0.0076 0.0000
0.1156 0.0064 0.0000
0.1152 0.0053 0.0000
0.1145 0.0045 0.0000
0.1136 0.0038 0.0000
0.1126 0.0032 0.0000
0.1116 0.0028 0.0000
0.1107 0.0025 0.0000
0.1097 0.0022 0.0000
0.1088 0.002 0.0000
0.108 0.0018 0.0000
0.1072 0.0016 0.0000
0.1064 0.0015 0.0000
0.1056 0.0013 0.0000
0.1049 0.0012 0.0000
0.1043 0.0011 0.0000
0.1037 0.001 0.0000
0.1031 0.001 0.0000
0.1025 0.0009 0.0000
0.102 0.0008 0.0000
0.1015 0.0008 0.0000
0.101 0.0007 0.0000
0.1006 0.0007 0.0000
0.1002 0.0007 0.0000
0.0997 0.0006 0.0000
0.0994 0.0006 0.0000
0.099 0.0005 0.0000
0.0987 0.0005 0.0000
0.0983 0.0005 0.0000
0.098 0.0005 0.0000
0.0978 0.0004 0.0000
0.0975 0.0004 0.0000
0.0972 0.0004 0.0000
0.097 0.0003 0.0000
0.0968 0.0003 0.0000
0.0966 0.0003 0.0000
0.0964 0.0003 0.0000
0.0962 0.0002 0.0000
0.0961 0.0002 0.0000
0.0959 0.0002 0.0000
0.0958 0.0002 0.0000
0.0957 0.0002 0.0000
0.0956 0.0001 0.0000
0.0955 0.0001 0.0000
0.0954 0.0001 0.0000
0.0953 0.0001 0.0000
0.0953 0.0001 0.0000
0.106 0.0069 0.0000
0.111 0.009 0.0000
0.114 0.0085 0.0000
0.1156 0.0074 0.0000
0.1161 0.0063 0.0000
0.1161 0.0053 0.0000
0.1157 0.0045 0.0000
0.1151 0.0038 0.0000
0.1144 0.0033 0.0000
0.1136 0.0029 0.0000
0.1129 0.0025 0.0000
0.1121 0.0023 0.0000
0.1113 0.002 0.0000
0.1106 0.0018 0.0000
0.1099 0.0017 0.0000
0.1092 0.0015 0.0000
0.1085 0.0014 0.0000
0.1079 0.0013 0.0000
0.1073 0.0012 0.0000
0.1067 0.0011 0.0000
0.1062 0.001 0.0000
0.1057 0.001 0.0000
0.1052 0.0009 0.0000
0.1047 0.0008 0.0000
0.1043 0.0008 0.0000
0.1038 0.0007 0.0000
0.1034 0.0007 0.0000
0.1031 0.0007 0.0000
0.1027 0.0006 0.0000
0.1024 0.0006 0.0000
0.102 0.0005 0.0000
0.1017 0.0005 0.0000
0.1014 0.0005 0.0000
0.1012 0.0005 0.0000
0.1009 0.0004 0.0000