# vtk DataFile Version 3.0
2D flow
ASCII
DATASET STRUCTURED_GRID
DIMENSIONS 10 10 1
POINTS 100 float
0.0 0.0 0.0000
0.1 0.0 0.0000
0.2 0.0 0.0000
0.3 0.0 0.0000
0.4 0.0 0.0000
0.5 0.0 0.0000
0.6 0.0 0.0000
0.7 0.0 0.0000
0.8 0.0 0.0000
0.9 0.0 0.0000
0.0 0.01 0.0000
0.1 0.01 0.0000
0.2 0.01 0.0000
0.3 0.01 0.0000
0.4 0.01 0.0000
0.5 0.01 0.0000
0.6 0.01 0.0000
0.7 0.01 0.0000
0.8 0.01 0.0000
0.9 0.01 0.0000
0.0 0.02 0.0000
0.1 0.02 0.0000
0.2 0.02 0.0000
0.3 0.02 0.0000
0.4 0.02 0.0000
0.5 0.02 0.0000
0.6 0.02 0.0000
0.7 0.02 0.0000
0.8 0.02 0.0000
0.9 0.02 0.0000
0.0 0.03 0.0000
0.1 0.03 0.0000
0.2 0.03 0.0000
0.3 0.03 0.0000
0.4 0.03 0.0000
0.5 0.03 0.0000
0.6 0.03 0.0000
0.7 0.03 0.0000
0.8 0.03 0.0000
0.9 0.03 0.0000
0.0 0.04 0.0000
0.1 0.04 0.0000
0.2 0.04 0.0000
0.3 0.04 0.0000
0.4 0.04 0.0000
0.5 0.04 0.0000
0.6 0.04 0.0000
0.7 0.04 0.0000
0.8 0.04 0.0000
0.9 0.04 0.0000
0.0 0.05 0.0000
0.1 0.05 0.0000
0.2 0.05 0.0000
0.3 0.05 0.0000
0.4 0.05 0.0000
0.5 0.05 0.0000
0.6 0.05 0.0000
0.7 0.05 0.0000
0.8 0.05 0.0000
0.9 0.05 0.0000
0.0 0.06 0.0000
0.1 0.06 0.0000
0.2 0.06 0.0000
0.3 0.06 0.0000
0.4 0.06 0.0000
0.5 0.06 0.0000
0.6 0.06 0.0000
0.7 0.06 0.0000
0.8 0.06 0.0000
0.9 0.06 0.0000
0.0 0.07 0.0000
0.1 0.07 0.0000
0.2 0.07 0.0000
0.3 0.07 0.0000
0.4 0.07 0.0000
0.5 0.07 0.0000
0.6 0.07 0.0000
0.7 0.07 0.0000
0.8 0.07 0.0000
0.9 0.07 0.0000
0.0 0.08 0.0000
0.1 0.08 0.0000
0.2 0.08 0.0000
0.3 0.08 0.0000
0.4 0.08 0.0000
0.5 0.08 0.0000
0.6 0.08 0.0000
0.7 0.08 0.0000
0.8 0.08 0.0000
0.9 0.08 0.0000
0.0 0.09 0.0000
0.1 0.09 0.0000
0.2 0.09 0.0000
0.3 0.09 0.0000
0.4 0.09 0.0000
0.5 0.09 0.0000
0.6 0.09 0.0000
0.7 0.09 0.0000
0.8 0.09 0.0000
0.9 0.09 0.0000
POINT_DATA 100
VECTORS velocity float
0.0 0.0 0.0000
0.0 0.0 0.0000
0.0 0.0 0.0000
0.0 0.0 0.0000
0.0 0.0 0.0000
0.0 0.0 0.0000
0.0 0.0 0.0000
0.0 0.0 0.0000
0.0 0.0 0.0000
0.0 0.0 0.0000
0.1 0.0 0.0000
0.0574 0.0017 0.0000
0.0454 0.0007 0.0000
0.0389 0.0003 0.0000
0.0359 0.0001 0.0000
0.0341 0.0001 0.0000
0.033 0.0001 0.0000
0.0319 0.0 0.0000
0.0318 0.0 0.0000
0.0301 0.0 0.0000
0.1 0.0 0.0000
0.0857 0.0037 0.0000
0.077 0.0018 0.0000
0.0697 0.0009 0.0000
0.0656 0.0005 0.0000
0.0628 0.0003 0.0000
0.061 0.0002 0.0000
0.0594 0.0001 0.0000
0.059 0.0001 0.0000
0.0569 0.0 0.0000
0.1 0.0 0.0000
0.0989 0.0043 0.0000
0.0963 0.0025 0.0000
0.0916 0.0014 0.0000
0.0882 0.0008 0.0000
0.0856 0.0005 0.0000
0.0838 0.0004 0.0000
0.0822 0.0003 0.0000
0.0816 0.0002 0.0000
0.0797 0.0 0.0000
0.1 0.0 0.0000
0.1046 0.0041 0.0000
0.107 0.0027 0.0000
0.1056 0.0017 0.0000
0.104 0.0011 0.0000
0.1025 0.0007 0.0000
0.1013 0.0005 0.0000
0.1001 0.0004 0.0000
0.0997 0.0003 0.0000
0.0982 0.0 0.0000
0.1 0.0 0.0000
0.1069 0.0035 0.0000
0.1124 0.0025 0.0000
0.1137 0.0017 0.0000
0.1141 0.0011 0.0000
0.114 0.0008 0.0000
0.1138 0.0006 0.0000
0.1133 0.0005 0.0000
0.1134 0.0004 0.0000
0.1123 0.0 0.0000
0.1 0.0 0.0000
0.1076 0.0028 0.0000
0.1148 0.0021 0.0000
0.118 0.0015 0.0000
0.12 0.001 0.0000
0.1212 0.0008 0.0000
0.122 0.0006 0.0000
0.1224 0.0004 0.0000
0.1231 0.0004 0.0000
0.1225 0.0 0.0000
0.1 0.0 0.0000
0.1077 0.002 0.0000
0.1157 0.0015 0.0000
0.1201 0.0011 0.0000
0.1232 0.0008 0.0000
0.1254 0.0006 0.0000
0.127 0.0005 0.0000
0.1281 0.0004 0.0000
0.1294 0.0003 0.0000
0.1292 0.0 0.0000
0.1 0.0 0.0000
0.1076 0.0012 0.0000
0.116 0.001 0.0000
0.121 0.0007 0.0000
0.1247 0.0005 0.0000
0.1275 0.0004 0.0000
0.1297 0.0003 0.0000
0.1312 0.0003 0.0000
0.1328 0.0002 0.0000
0.133 0.0 0.0000
0.1 0.0 0.0000
0.1076 0.0 0.0000
0.116 0.0 0.0000
0.1212 0.0 0.0000
0.1251 0.0 0.0000
0.1281 0.0 0.0000
0.1305 0.0 0.0000
0.1322 0.0 0.0000
0.1339 0.0 0.0000
0.1342 0.0 0.0000
SCALARS pressure float
LOOKUP_TABLE default
6.4758
5.2797
3.6931
2.9871
2.3879
1.8578
1.3905
0.9157
0.5543
0.0
6.5021
5.3078
3.704
2.9923
2.3903
1.8592
1.3916
0.9161
0.5555
0.0
6.3323
5.2595
3.709
2.9969
2.3928
1.8606
1.3926
0.9167
0.556
0.0
6.1058
5.2026
3.719
3.0031
2.3959
1.8621
1.3934
0.9174
0.5562
0.0
5.8857
5.1525
3.7309
3.0105
2.3999
1.8641
1.3945
0.9182
0.5564
0.0
5.698
5.1099
3.742
3.0182
2.4043
1.8664
1.3959
0.9192
0.5568
0.0
5.5517
5.076
3.7511
3.0249
2.4084
1.8687
1.3972
0.9202
0.5573
0.0
5.4484
5.0515
3.7582
3.0305
2.412
1.8708
1.3985
0.9212
0.558
0.0
5.3872
5.0355
3.7634
3.0352
2.4152
1.8729
1.4
0.9223
0.5587
0.0
5.3669
5.0194
3.7559
3.0301
2.4114
1.8699
1.3975
0.9204
0.5572
0.0
