# vtk DataFile Version 3.0
2D flow
ASCII
DATASET STRUCTURED_GRID
DIMENSIONS 10 10 1
POINTS 100 float
0.05 0.005 0.0000
0.15 0.005 0.0000
0.25 0.005 0.0000
0.35 0.005 0.0000
0.45 0.005 0.0000
0.55 0.005 0.0000
0.65 0.005 0.0000
0.75 0.005 0.0000
0.85 0.005 0.0000
0.95 0.005 0.0000
0.05 0.015 0.0000
0.15 0.015 0.0000
0.25 0.015 0.0000
0.35 0.015 0.0000
0.45 0.015 0.0000
0.55 0.015 0.0000
0.65 0.015 0.0000
0.75 0.015 0.0000
0.85 0.015 0.0000
0.95 0.015 0.0000
0.05 0.025 0.0000
0.15 0.025 0.0000
0.25 0.025 0.0000
0.35 0.025 0.0000
0.45 0.025 0.0000
0.55 0.025 0.0000
0.65 0.025 0.0000
0.75 0.025 0.0000
0.85 0.025 0.0000
0.95 0.025 0.0000
0.05 0.035 0.0000
0.15 0.035 0.0000
0.25 0.035 0.0000
0.35 0.035 0.0000
0.45 0.035 0.0000
0.55 0.035 0.0000
0.65 0.035 0.0000
0.75 0.035 0.0000
0.85 0.035 0.0000
0.95 0.035 0.0000
0.05 0.045 0.0000
0.15 0.045 0.0000
0.25 0.045 0.0000
0.35 0.045 0.0000
0.45 0.045 0.0000
0.55 0.045 0.0000
0.65 0.045 0.0000
0.75 0.045 0.0000
0.85 0.045 0.0000
0.95 0.045 0.0000
0.05 0.055 0.0000
0.15 0.055 0.0000
0.25 0.055 0.0000
0.35 0.055 0.0000
0.45 0.055 0.0000
0.55 0.055 0.0000
0.65 0.055 0.0000
0.75 0.055 0.0000
0.85 0.055 0.0000
0.95 0.055 0.0000
0.05 0.065 0.0000
0.15 0.065 0.0000
0.25 0.065 0.0000
0.35 0.065 0.0000
0.45 0.065 0.0000
0.55 0.065 0.0000
0.65 0.065 0.0000
0.75 0.065 0.0000
0.85 0.065 0.0000
0.95 0.065 0.0000
0.05 0.075 0.0000
0.15 0.075 0.0000
0.25 0.075 0.0000
0.35 0.075 0.0000
0.45 0.075 0.0000
0.55 0.075 0.0000
0.65 0.075 0.0000
0.75 0.075 0.0000
0.85 0.075 0.0000
0.95 0.075 0.0000
0.05 0.085 0.0000
0.15 0.085 0.0000
0.25 0.085 0.0000
0.35 0.085 0.0000
0.45 0.085 0.0000
0.55 0.085 0.0000
0.65 0.085 0.0000
0.75 0.085 0.0000
0.85 0.085 0.0000
0.95 0.085 0.0000
0.05 0.095 0.0000
0.15 0.095 0.0000
0.25 0.095 0.0000
0.35 0.095 0.0000
0.45 0.095 0.0000
0.55 0.095 0.0000
0.65 0.095 0.0000
0.75 0.095 0.0000
0.85 0.095 0.0000
0.95 0.095 0.0000
POINT_DATA 100
VECTORS velocity float
0.0356 0.0064 0.0000
0.0239 0.0012 0.0000
0.0208 0.0003 0.0000
0.0192 0.0002 0.0000
0.0183 0.0001 0.0000
0.0176 0.0001 0.0000
0.0172 0.0 0.0000
0.0169 0.0 0.0000
0.0167 0.0 0.0000
0.0165 0.0 0.0000
0.0765 0.0088 0.0000
0.0622 0.0026 0.0000
0.0558 0.001 0.0000
0.0522 0.0005 0.0000
0.0499 0.0003 0.0000
0.0484 0.0002 0.0000
0.0474 0.0002 0.0000
0.0466 0.0001 0.0000
0.0462 0.0001 0.0000
0.0458 0.0 0.0000
0.0974 0.0091 0.0000
0.0886 0.0035 0.0000
0.0827 0.0016 0.0000
0.0788 0.0009 0.0000
0.0762 0.0006 0.0000
0.0743 0.0004 0.0000
0.073 0.0003 0.0000
0.0721 0.0002 0.0000
0.0714 0.0001 0.0000
0.0711 0.0001 0.0000
0.1075 0.0083 0.0000
0.1048 0.0037 0.0000
0.1015 0.0019 0.0000
0.0987 0.0012 0.0000
0.0965 0.0008 0.0000
0.0949 0.0006 0.0000
0.0937 0.0004 0.0000
0.0929 0.0003 0.0000
0.0923 0.0002 0.0000
0.0919 0.0001 0.0000
0.112 0.0071 0.0000
0.1139 0.0035 0.0000
0.1134 0.0019 0.0000
0.1123 0.0013 0.0000
0.1113 0.0009 0.0000
0.1104 0.0007 0.0000
0.1096 0.0005 0.0000
0.1091 0.0003 0.0000
0.1087 0.0002 0.0000
0.1084 0.0001 0.0000
0.1138 0.0057 0.0000
0.1186 0.0031 0.0000
0.1204 0.0018 0.0000
0.121 0.0012 0.0000
0.1212 0.0009 0.0000
0.1212 0.0007 0.0000
0.1211 0.0005 0.0000
0.121 0.0003 0.0000
0.1209 0.0002 0.0000
0.1208 0.0002 0.0000
0.1143 0.0043 0.0000
0.1208 0.0024 0.0000
0.1242 0.0014 0.0000
0.1262 0.001 0.0000
0.1275 0.0008 0.0000
0.1284 0.0006 0.0000
0.1289 0.0004 0.0000
0.1293 0.0003 0.0000
0.1295 0.0002 0.0000
0.1297 0.0001 0.0000
0.1143 0.0029 0.0000
0.1218 0.0016 0.0000
0.1262 0.001 0.0000
0.1291 0.0007 0.0000
0.1312 0.0005 0.0000
0.1328 0.0004 0.0000
0.1339 0.0003 0.0000
0.1347 0.0002 0.0000
0.1353 0.0002 0.0000
0.1356 0.0001 0.0000
0.1142 0.0015 0.0000
0.1223 0.0008 0.0000
0.1273 0.0005 0.0000
0.1307 0.0004 0.0000
0.1334 0.0003 0.0000
0.1354 0.0002 0.0000
0.1369 0.0002 0.0000
0.138 0.0001 0.0000
0.1387 0.0001 0.0000
0.1392 0.0001 0.0000
0.1146 0.0 0.0000
0.1229 0.0 0.0000
0.128 0.0 0.0000
0.1316 0.0 0.0000
0.1345 0.0 0.0000
0.1366 0.0 0.0000
0.1383 0.0 0.0000
0.1395 0.0 0.0000
0.1404 0.0 0.0000
0.1409 0.0 0.0000
SCALARS pressure float
LOOKUP_TABLE default
6.793
4.3411
3.5264
2.9199
2.3938
1.9215
1.4887
1.0861
0.7067
0.3449
6.7001
4.3663
3.5298
2.9205
2.394
1.9216
1.4887
1.0861
0.7067
0.3448
6.5957
4.4134
3.5411
2.9233
2.395
1.9221
1.489
1.0862
0.7068
0.3448
6.5002
4.4664
3.5583
2.9289
2.3975
1.9234
1.4898
1.0867
0.707
0.3449
6.418
4.5159
3.5776
2.9361
2.401
1.9254
1.491
1.0875
0.7075
0.3452
6.3497
4.5578
3.5961
2.9436
2.405
1.9279
1.4927
1.0886
0.7083
0.3457
6.2954
4.5907
3.612
2.9504
2.4087
1.9304
1.4944
1.0898
0.7091
0.3463
6.2547
4.6149
3.6244
2.9558
2.4119
1.9325
1.496
1.091
0.7099
0.3469
6.2275
4.6309
3.6328
2.9595
2.414
1.934
1.4971
1.0918
0.7105
0.3474
6.2137
4.6391
3.6371
2.9614
2.4151
1.9348
1.4977
1.0922
0.7108
0.3476
