# vtk DataFile Version 3.0
2D flow
ASCII
DATASET STRUCTURED_GRID
DIMENSIONS 20 20 1
POINTS 400 float
0.025 0.0025 0.0000
0.075 0.0025 0.0000
0.125 0.0025 0.0000
0.175 0.0025 0.0000
0.225 0.0025 0.0000
0.275 0.0025 0.0000
0.325 0.0025 0.0000
0.375 0.0025 0.0000
0.425 0.0025 0.0000
0.475 0.0025 0.0000
0.525 0.0025 0.0000
0.575 0.0025 0.0000
0.625 0.0025 0.0000
0.675 0.0025 0.0000
0.725 0.0025 0.0000
0.775 0.0025 0.0000
0.825 0.0025 0.0000
0.875 0.0025 0.0000
0.925 0.0025 0.0000
0.975 0.0025 0.0000
0.025 0.0075 0.0000
0.075 0.0075 0.0000
0.125 0.0075 0.0000
0.175 0.0075 0.0000
0.225 0.0075 0.0000
0.275 0.0075 0.0000
0.325 0.0075 0.0000
0.375 0.0075 0.0000
0.425 0.0075 0.0000
0.475 0.0075 0.0000
0.525 0.0075 0.0000
0.575 0.0075 0.0000
0.625 0.0075 0.0000
0.675 0.0075 0.0000
0.725 0.0075 0.0000
0.775 0.0075 0.0000
0.825 0.0075 0.0000
0.875 0.0075 0.0000
0.925 0.0075 0.0000
0.975 0.0075 0.0000
0.025 0.0125 0.0000
0.075 0.0125 0.0000
0.125 0.0125 0.0000
0.175 0.0125 0.0000
0.225 0.0125 0.0000
0.275 0.0125 0.0000
0.325 0.0125 0.0000
0.375 0.0125 0.0000
0.425 0.0125 0.0000
0.475 0.0125 0.0000
0.525 0.0125 0.0000
0.575 0.0125 0.0000
0.625 0.0125 0.0000
0.675 0.0125 0.0000
0.725 0.0125 0.0000
0.775 0.0125 0.0000
0.825 0.0125 0.0000
0.875 0.0125 0.0000
0.925 0.0125 0.0000
0.975 0.0125 0.0000
0.025 0.0175 0.0000
0.075 0.0175 0.0000
0.125 0.0175 0.0000
0.175 0.0175 0.0000
0.225 0.0175 0.0000
0.275 0.0175 0.0000
0.325 0.0175 0.0000
0.375 0.0175 0.0000
0.425 0.0175 0.0000
0.475 0.0175 0.0000
0.525 0.0175 0.0000
0.575 0.0175 0.0000
0.625 0.0175 0.0000
0.675 0.0175 0.0000
0.725 0.0175 0.0000
0.775 0.0175 0.0000
0.825 0.0175 0.0000
0.875 0.0175 0.0000
0.925 0.0175 0.0000
0.975 0.0175 0.0000
0.025 0.0225 0.0000
0.075 0.0225 0.0000
0.125 0.0225 0.0000
0.175 0.0225 0.0000
0.225 0.0225 0.0000
0.275 0.0225 0.0000
0.325 0.0225 0.0000
0.375 0.0225 0.0000
0.425 0.0225 0.0000
0.475 0.0225 0.0000
0.525 0.0225 0.0000
0.575 0.0225 0.0000
0.625 0.0225 0.0000
0.675 0.0225 0.0000
0.725 0.0225 0.0000
0.775 0.0225 0.0000
0.825 0.0225 0.0000
0.875 0.0225 0.0000
0.925 0.0225 0.0000
0.975 0.0225 0.0000
0.025 0.0275 0.0000
0.075 0.0275 0.0000
0.125 0.0275 0.0000
0.175 0.0275 0.0000
0.225 0.0275 0.0000
0.275 0.0275 0.0000
0.325 0.0275 0.0000
0.375 0.0275 0.0000
0.425 0.0275 0.0000
0.475 0.0275 0.0000
0.525 0.0275 0.0000
0.575 0.0275 0.0000
0.625 0.0275 0.0000
0.675 0.0275 0.0000
0.725 0.0275 0.0000
0.775 0.0275 0.0000
0.825 0.0275 0.0000
0.875 0.0275 0.0000
0.925 0.0275 0.0000
0.975 0.0275 0.0000
0.025 0.0325 0.0000
0.075 0.0325 0.0000
0.125 0.0325 0.0000
0.175 0.0325 0.0000
0.225 0.0325 0.0000
0.275 0.0325 0.0000
0.325 0.0325 0.0000
0.375 0.0325 0.0000
0.425 0.0325 0.0000
0.475 0.0325 0.0000
0.525 0.0325 0.0000
0.575 0.0325 0.0000
0.625 0.0325 0.0000
0.675 0.0325 0.0000
0.725 0.0325 0.0000
0.775 0.0325 0.0000
0.825 0.0325 0.0000
0.875 0.0325 0.0000
0.925 0.0325 0.0000
0.975 0.0325 0.0000
0.025 0.0375 0.0000
0.075 0.0375 0.0000
0.125 0.0375 0.0000
0.175 0.0375 0.0000
0.225 0.0375 0.0000
0.275 0.0375 0.0000
0.325 0.0375 0.0000
0.375 0.0375 0.0000
0.425 0.0375 0.0000
0.475 0.0375 0.0000
0.525 0.0375 0.0000
0.575 0.0375 0.0000
0.625 0.0375 0.0000
0.675 0.0375 0.0000
0.725 0.0375 0.0000
0.775 0.0375 0.0000
0.825 0.0375 0.0000
0.875 0.0375 0.0000
0.925 0.0375 0.0000
0.975 0.0375 0.0000
0.025 0.0425 0.0000
0.075 0.0425 0.0000
0.125 0.0425 0.0000
0.175 0.0425 0.0000
0.225 0.0425 0.0000
0.275 0.0425 0.0000
0.325 0.0425 0.0000
0.375 0.0425 0.0000
0.425 0.0425 0.0000
0.475 0.0425 0.0000
0.525 0.0425 0.0000
0.575 0.0425 0.0000
0.625 0.0425 0.0000
0.675 0.0425 0.0000
0.725 0.0425 0.0000
0.775 0.0425 0.0000
0.825 0.0425 0.0000
0.875 0.0425 0.0000
0.925 0.0425 0.0000
0.975 0.0425 0.0000
0.025 0.0475 0.0000
0.075 0.0475 0.0000
0.125 0.0475 0.0000
0.175 0.0475 0.0000
0.225 0.0475 0.0000
0.275 0.0475 0.0000
0.325 0.0475 0.0000
0.375 0.0475 0.0000
0.425 0.0475 0.0000
0.475 0.0475 0.0000
0.525 0.0475 0.0000
0.575 0.0475 0.0000
0.625 0.0475 0.0000
0.675 0.0475 0.0000
0.725 0.0475 0.0000
0.775 0.0475 0.0000
0.825 0.0475 0.0000
0.875 0.0475 0.0000
0.925 0.0475 0.0000
0.975 0.0475 0.0000
0.025 0.0525 0.0000
0.075 0.0525 0.0000
0.125 0.0525 0.0000
0.175 0.0525 0.0000
0.225 0.0525 0.0000
0.275 0.0525 0.0000
0.325 0.0525 0.0000
0.375 0.0525 0.0000
0.425 0.0525 0.0000
0.475 0.0525 0.0000
0.525 0.0525 0.0000
0.575 0.0525 0.0000
0.625 0.0525 0.0000
0.675 0.0525 0.0000
0.725 0.0525 0.0000
0.775 0.0525 0.0000
0.825 0.0525 0.0000
0.875 0.0525 0.0000
0.925 0.0525 0.0000
0.975 0.0525 0.0000
0.025 0.0575 0.0000
0.075 0.0575 0.0000
0.125 0.0575 0.0000
0.175 0.0575 0.0000
0.225 0.0575 0.0000
0.275 0.0575 0.0000
0.325 0.0575 0.0000
0.375 0.0575 0.0000
0.425 0.0575 0.0000
0.475 0.0575 0.0000
0.525 0.0575 0.0000
0.575 0.0575 0.0000
0.625 0.0575 0.0000
0.675 0.0575 0.0000
0.725 0.0575 0.0000
0.775 0.0575 0.0000
0.825 0.0575 0.0000
0.875 0.0575 0.0000
0.925 0.0575 0.0000
0.975 0.0575 0.0000
0.025 0.0625 0.0000
0.075 0.0625 0.0000
0.125 0.0625 0.0000
0.175 0.0625 0.0000
0.225 0.0625 0.0000
0.275 0.0625 0.0000
0.325 0.0625 0.0000
0.375 0.0625 0.0000
0.425 0.0625 0.0000
0.475 0.0625 0.0000
0.525 0.0625 0.0000
0.575 0.0625 0.0000
0.625 0.0625 0.0000
0.675 0.0625 0.0000
0.725 0.0625 0.0000
0.775 0.0625 0.0000
0.825 0.0625 0.0000
0.875 0.0625 0.0000
0.925 0.0625 0.0000
0.975 0.0625 0.0000
0.025 0.0675 0.0000
0.075 0.0675 0.0000
0.125 0.0675 0.0000
0.175 0.0675 0.0000
0.225 0.0675 0.0000
0.275 0.0675 0.0000
0.325 0.0675 0.0000
0.375 0.0675 0.0000
0.425 0.0675 0.0000
0.475 0.0675 0.0000
0.525 0.0675 0.0000
0.575 0.0675 0.0000
0.625 0.0675 0.0000
0.675 0.0675 0.0000
0.725 0.0675 0.0000
0.775 0.0675 0.0000
0.825 0.0675 0.0000
0.875 0.0675 0.0000
0.925 0.0675 0.0000
0.975 0.0675 0.0000
0.025 0.0725 0.0000
0.075 0.0725 0.0000
0.125 0.0725 0.0000
0.175 0.0725 0.0000
0.225 0.0725 0.0000
0.275 0.0725 0.0000
0.325 0.0725 0.0000
0.375 0.0725 0.0000
0.425 0.0725 0.0000
0.475 0.0725 0.0000
0.525 0.0725 0.0000
0.575 0.0725 0.0000
0.625 0.0725 0.0000
0.675 0.0725 0.0000
0.725 0.0725 0.0000
0.775 0.0725 0.0000
0.825 0.0725 0.0000
0.875 0.0725 0.0000
0.925 0.0725 0.0000
0.975 0.0725 0.0000
0.025 0.0775 0.0000
0.075 0.0775 0.0000
0.125 0.0775 0.0000
0.175 0.0775 0.0000
0.225 0.0775 0.0000
0.275 0.0775 0.0000
0.325 0.0775 0.0000
0.375 0.0775 0.0000
0.425 0.0775 0.0000
0.475 0.0775 0.0000
0.525 0.0775 0.0000
0.575 0.0775 0.0000
0.625 0.0775 0.0000
0.675 0.0775 0.0000
0.725 0.0775 0.0000
0.775 0.0775 0.0000
0.825 0.0775 0.0000
0.875 0.0775 0.0000
0.925 0.0775 0.0000
0.975 0.0775 0.0000
0.025 0.0825 0.0000
0.075 0.0825 0.0000
0.125 0.0825 0.0000
0.175 0.0825 0.0000
0.225 0.0825 0.0000
0.275 0.0825 0.0000
0.325 0.0825 0.0000
0.375 0.0825 0.0000
0.425 0.0825 0.0000
0.475 0.0825 0.0000
0.525 0.0825 0.0000
0.575 0.0825 0.0000
0.625 0.0825 0.0000
0.675 0.0825 0.0000
0.725 0.0825 0.0000
0.775 0.0825 0.0000
0.825 0.0825 0.0000
0.875 0.0825 0.0000
0.925 0.0825 0.0000
0.975 0.0825 0.0000
0.025 0.0875 0.0000
0.075 0.0875 0.0000
0.125 0.0875 0.0000
0.175 0.0875 0.0000
0.225 0.0875 0.0000
0.275 0.0875 0.0000
0.325 0.0875 0.0000
0.375 0.0875 0.0000
0.425 0.0875 0.0000
0.475 0.0875 0.0000
0.525 0.0875 0.0000
0.575 0.0875 0.0000
0.625 0.0875 0.0000
0.675 0.0875 0.0000
0.725 0.0875 0.0000
0.775 0.0875 0.0000
0.825 0.0875 0.0000
0.875 0.0875 0.0000
0.925 0.0875 0.0000
0.975 0.0875 0.0000
0.025 0.0925 0.0000
0.075 0.0925 0.0000
0.125 0.0925 0.0000
0.175 0.0925 0.0000
0.225 0.0925 0.0000
0.275 0.0925 0.0000
0.325 0.0925 0.0000
0.375 0.0925 0.0000
0.425 0.0925 0.0000
0.475 0.0925 0.0000
0.525 0.0925 0.0000
0.575 0.0925 0.0000
0.625 0.0925 0.0000
0.675 0.0925 0.0000
0.725 0.0925 0.0000
0.775 0.0925 0.0000
0.825 0.0925 0.0000
0.875 0.0925 0.0000
0.925 0.0925 0.0000
0.975 0.0925 0.0000
0.025 0.0975 0.0000
0.075 0.0975 0.0000
0.125 0.0975 0.0000
0.175 0.0975 0.0000
0.225 0.0975 0.0000
0.275 0.0975 0.0000
0.325 0.0975 0.0000
0.375 0.0975 0.0000
0.425 0.0975 0.0000
0.475 0.0975 0.0000
0.525 0.0975 0.0000
0.575 0.0975 0.0000
0.625 0.0975 0.0000
0.675 0.0975 0.0000
0.725 0.0975 0.0000
0.775 0.0975 0.0000
0.825 0.0975 0.0000
0.875 0.0975 0.0000
0.925 0.0975 0.0000
0.975 0.0975 0.0000
POINT_DATA 400
VECTORS velocity float
0.0251 0.0075 0.0000
0.0155 0.001 0.0000
0.0128 0.0003 0.0000
0.0116 0.0001 0.0000
0.0109 0.0001 0.0000
0.0103 0.0001 0.0000
0.0099 0.0 0.0000
0.0096 0.0 0.0000
0.0094 0.0 0.0000
0.0091 0.0 0.0000
0.009 0.0 0.0000
0.0088 0.0 0.0000
0.0087 0.0 0.0000
0.0086 0.0 0.0000
0.0085 0.0 0.0000
0.0084 0.0 0.0000
0.0084 0.0 0.0000
0.0083 0.0 0.0000
0.0083 0.0 0.0000
0.0082 0.0 0.0000
0.0604 0.0114 0.0000
0.0429 0.0027 0.0000
0.0362 0.0009 0.0000
0.0329 0.0005 0.0000
0.0309 0.0003 0.0000
0.0295 0.0002 0.0000
0.0284 0.0001 0.0000
0.0275 0.0001 0.0000
0.0268 0.0001 0.0000
0.0262 0.0001 0.0000
0.0258 0.0001 0.0000
0.0254 0.0001 0.0000
0.025 0.0 0.0000
0.0247 0.0 0.0000
0.0245 0.0 0.0000
0.0243 0.0 0.0000
0.0241 0.0 0.0000
0.024 0.0 0.0000
0.0239 0.0 0.0000
0.0238 0.0 0.0000
0.0828 0.0132 0.0000
0.0655 0.0044 0.0000
0.0569 0.0018 0.0000
0.0521 0.0009 0.0000
0.0491 0.0006 0.0000
0.047 0.0004 0.0000
0.0453 0.0003 0.0000
0.044 0.0002 0.0000
0.043 0.0002 0.0000
0.0421 0.0002 0.0000
0.0414 0.0001 0.0000
0.0408 0.0001 0.0000
0.0402 0.0001 0.0000
0.0398 0.0001 0.0000
0.0394 0.0001 0.0000
0.0392 0.0001 0.0000
0.0389 0.0 0.0000
0.0387 0.0 0.0000
0.0386 0.0 0.0000
0.0385 0.0 0.0000
0.0962 0.0135 0.0000
0.0829 0.0058 0.0000
0.0743 0.0027 0.0000
0.0689 0.0015 0.0000
0.0653 0.0009 0.0000
0.0627 0.0007 0.0000
0.0607 0.0005 0.0000
0.0591 0.0004 0.0000
0.0578 0.0003 0.0000
0.0567 0.0003 0.0000
0.0558 0.0002 0.0000
0.055 0.0002 0.0000
0.0543 0.0002 0.0000
0.0538 0.0001 0.0000
0.0533 0.0001 0.0000
0.053 0.0001 0.0000
0.0527 0.0001 0.0000
0.0525 0.0001 0.0000
0.0523 0.0 0.0000
0.0521 0.0 0.0000
0.1039 0.0132 0.0000
0.0954 0.0066 0.0000
0.0881 0.0034 0.0000
0.083 0.002 0.0000
0.0794 0.0013 0.0000
0.0766 0.001 0.0000
0.0744 0.0007 0.0000
0.0726 0.0006 0.0000
0.0711 0.0005 0.0000
0.0699 0.0004 0.0000
0.0689 0.0003 0.0000
0.068 0.0003 0.0000
0.0673 0.0002 0.0000
0.0666 0.0002 0.0000
0.0661 0.0002 0.0000
0.0657 0.0001 0.0000
0.0654 0.0001 0.0000
0.0651 0.0001 0.0000
0.0649 0.0001 0.0000
0.0648 0.0001 0.0000
0.1081 0.0123 0.0000
0.1038 0.0071 0.0000
0.0986 0.0039 0.0000
0.0944 0.0024 0.0000
0.0911 0.0016 0.0000
0.0884 0.0012 0.0000
0.0863 0.0009 0.0000
0.0845 0.0008 0.0000
0.083 0.0006 0.0000
0.0817 0.0005 0.0000
0.0806 0.0004 0.0000
0.0797 0.0004 0.0000
0.079 0.0003 0.0000
0.0783 0.0003 0.0000
0.0778 0.0002 0.0000
0.0773 0.0002 0.0000
0.077 0.0001 0.0000
0.0767 0.0001 0.0000
0.0765 0.0001 0.0000
0.0763 0.0001 0.0000
0.1102 0.0113 0.0000
0.1093 0.0072 0.0000
0.1062 0.0042 0.0000
0.1032 0.0027 0.0000
0.1005 0.0019 0.0000
0.0982 0.0014 0.0000
0.0963 0.0011 0.0000
0.0947 0.0009 0.0000
0.0933 0.0008 0.0000
0.0921 0.0006 0.0000
0.0911 0.0005 0.0000
0.0902 0.0005 0.0000
0.0894 0.0004 0.0000
0.0888 0.0003 0.0000
0.0883 0.0003 0.0000
0.0878 0.0002 0.0000
0.0875 0.0002 0.0000
0.0872 0.0001 0.0000
0.087 0.0001 0.0000
0.0868 0.0001 0.0000
0.1109 0.0102 0.0000
0.1126 0.007 0.0000
0.1114 0.0043 0.0000
0.1096 0.0029 0.0000
0.1078 0.0021 0.0000
0.1061 0.0016 0.0000
0.1046 0.0013 0.0000
0.1033 0.0011 0.0000
0.1021 0.0009 0.0000
0.101 0.0008 0.0000
0.1001 0.0006 0.0000
0.0993 0.0005 0.0000
0.0986 0.0005 0.0000
0.0981 0.0004 0.0000
0.0976 0.0003 0.0000
0.0972 0.0003 0.0000
0.0968 0.0002 0.0000
0.0966 0.0002 0.0000
0.0964 0.0001 0.0000
0.0962 0.0001 0.0000
0.111 0.0091 0.0000
0.1144 0.0066 0.0000
0.1148 0.0043 0.0000
0.1143 0.0029 0.0000
0.1133 0.0022 0.0000
0.1123 0.0017 0.0000
0.1113 0.0014 0.0000
0.1103 0.0012 0.0000
0.1094 0.001 0.0000
0.1086 0.0008 0.0000
0.1078 0.0007 0.0000
0.1072 0.0006 0.0000
0.1066 0.0005 0.0000
0.1061 0.0004 0.0000
0.1057 0.0004 0.0000
0.1054 0.0003 0.0000
0.1051 0.0002 0.0000
0.1049 0.0002 0.0000
0.1047 0.0001 0.0000
0.1046 0.0001 0.0000
0.1106 0.0081 0.0000
0.1152 0.0062 0.0000
0.1169 0.0041 0.0000
0.1174 0.0029 0.0000
0.1173 0.0022 0.0000
0.1169 0.0017 0.0000
0.1164 0.0014 0.0000
0.1159 0.0012 0.0000
0.1153 0.001 0.0000
0.1148 0.0009 0.0000
0.1143 0.0008 0.0000
0.1138 0.0007 0.0000
0.1134 0.0006 0.0000
0.1131 0.0005 0.0000
0.1128 0.0004 0.0000
0.1125 0.0003 0.0000
0.1123 0.0003 0.0000
0.1121 0.0002 0.0000
0.112 0.0002 0.0000
0.1119 0.0001 0.0000
0.1101 0.0071 0.0000
0.1155 0.0056 0.0000
0.1181 0.0038 0.0000
0.1194 0.0028 0.0000
0.12 0.0021 0.0000
0.1203 0.0017 0.0000
0.1203 0.0014 0.0000
0.1202 0.0012 0.0000
0.12 0.0011 0.0000
0.1198 0.0009 0.0000
0.1196 0.0008 0.0000
0.1194 0.0007 0.0000
0.1191 0.0006 0.0000
0.1189 0.0005 0.0000
0.1188 0.0004 0.0000
0.1186 0.0003 0.0000
0.1185 0.0003 0.0000
0.1183 0.0002 0.0000
0.1183 0.0002 0.0000
0.1182 0.0001 0.0000
0.1095 0.0061 0.0000
0.1153 0.0051 0.0000
0.1186 0.0035 0.0000
0.1206 0.0026 0.0000
0.1218 0.002 0.0000
0.1226 0.0016 0.0000
0.1231 0.0014 0.0000
0.1235 0.0012 0.0000
0.1237 0.001 0.0000
0.1238 0.0009 0.0000
0.1238 0.0008 0.0000
0.1238 0.0007 0.0000
0.1238 0.0006 0.0000
0.1238 0.0005 0.0000
0.1238 0.0004 0.0000
0.1237 0.0003 0.0000
0.1237 0.0003 0.0000
0.1236 0.0002 0.0000
0.1236 0.0002 0.0000
0.1236 0.0001 0.0000
0.1089 0.0052 0.0000
0.115 0.0045 0.0000
0.1187 0.0031 0.0000
0.1212 0.0023 0.0000
0.1229 0.0018 0.0000
0.1242 0.0015 0.0000
0.1252 0.0013 0.0000
0.1259 0.0011 0.0000
0.1264 0.001 0.0000
0.1268 0.0009 0.0000
0.1272 0.0007 0.0000
0.1274 0.0006 0.0000
0.1276 0.0006 0.0000
0.1278 0.0005 0.0000
0.1279 0.0004 0.0000
0.128 0.0003 0.0000
0.128 0.0003 0.0000
0.1281 0.0002 0.0000
0.1281 0.0002 0.0000
0.1281 0.0001 0.0000
0.1084 0.0044 0.0000
0.1146 0.0038 0.0000
0.1187 0.0027 0.0000
0.1215 0.002 0.0000
0.1236 0.0016 0.0000
0.1252 0.0014 0.0000
0.1265 0.0012 0.0000
0.1276 0.001 0.0000
0.1284 0.0009 0.0000
0.1291 0.0008 0.0000
0.1297 0.0007 0.0000
0.1302 0.0006 0.0000
0.1306 0.0005 0.0000
0.1309 0.0004 0.0000
0.1312 0.0004 0.0000
0.1314 0.0003 0.0000
0.1316 0.0003 0.0000
0.1317 0.0002 0.0000
0.1318 0.0002 0.0000
0.1319 0.0001 0.0000
0.1079 0.0036 0.0000
0.1142 0.0032 0.0000
0.1185 0.0023 0.0000
0.1216 0.0017 0.0000
0.1239 0.0014 0.0000
0.1259 0.0012 0.0000
0.1275 0.001 0.0000
0.1288 0.0009 0.0000
0.1299 0.0008 0.0000
0.1309 0.0007 0.0000
0.1317 0.0006 0.0000
0.1324 0.0005 0.0000
0.1329 0.0005 0.0000
0.1334 0.0004 0.0000
0.1338 0.0003 0.0000
0.1341 0.0003 0.0000
0.1344 0.0002 0.0000
0.1346 0.0002 0.0000
0.1348 0.0001 0.0000
0.1349 0.0001 0.0000
0.1075 0.0028 0.0000
0.1138 0.0026 0.0000
0.1183 0.0019 0.0000
0.1215 0.0014 0.0000
0.1241 0.0011 0.0000
0.1263 0.0009 0.0000
0.1281 0.0008 0.0000
0.1296 0.0007 0.0000
0.131 0.0006 0.0000
0.1321 0.0006 0.0000
0.1331 0.0005 0.0000
0.134 0.0004 0.0000
0.1347 0.0004 0.0000
0.1353 0.0003 0.0000
0.1359 0.0003 0.0000
0.1363 0.0002 0.0000
0.1366 0.0002 0.0000
0.1369 0.0002 0.0000
0.1371 0.0001 0.0000
0.1373 0.0001 0.0000
0.1072 0.0021 0.0000
0.1135 0.0019 0.0000
0.1181 0.0014 0.0000
0.1215 0.0011 0.0000
0.1243 0.0008 0.0000
0.1265 0.0007 0.0000
0.1285 0.0006 0.0000
0.1302 0.0006 0.0000
0.1317 0.0005 0.0000
0.133 0.0004 0.0000
0.1342 0.0004 0.0000
0.1352 0.0003 0.0000
0.136 0.0003 0.0000
0.1368 0.0003 0.0000
0.1374 0.0002 0.0000
0.1379 0.0002 0.0000
0.1383 0.0002 0.0000
0.1387 0.0001 0.0000
0.1389 0.0001 0.0000
0.1391 0.0001 0.0000
0.107 0.0014 0.0000
0.1134 0.0013 0.0000
0.1181 0.0009 0.0000
0.1216 0.0007 0.0000
0.1244 0.0006 0.0000
0.1268 0.0005 0.0000
0.1288 0.0004 0.0000
0.1306 0.0004 0.0000
0.1322 0.0003 0.0000
0.1337 0.0003 0.0000
0.1349 0.0003 0.0000
0.136 0.0002 0.0000
0.137 0.0002 0.0000
0.1378 0.0002 0.0000
0.1385 0.0002 0.0000
0.1391 0.0001 0.0000
0.1396 0.0001 0.0000
0.1399 0.0001 0.0000
0.1403 0.0001 0.0000
0.1405 0.0 0.0000
0.107 0.0007 0.0000
0.1135 0.0007 0.0000
0.1182 0.0005 0.0000
0.1217 0.0003 0.0000
0.1246 0.0003 0.0000
0.127 0.0002 0.0000
0.1291 0.0002 0.0000
0.1309 0.0002 0.0000
0.1326 0.0002 0.0000
0.1341 0.0002 0.0000
0.1354 0.0001 0.0000
0.1366 0.0001 0.0000
0.1376 0.0001 0.0000
0.1385 0.0001 0.0000
0.1392 0.0001 0.0000
0.1399 0.0001 0.0000
0.1404 0.0001 0.0000
0.1408 0.0 0.0000
0.1411 0.0 0.0000
0.1414 0.0 0.0000
0.1073 0.0 0.0000
0.1138 0.0 0.0000
0.1185 0.0 0.0000
0.122 0.0 0.0000
0.1248 0.0 0.0000
0.1272 0.0 0.0000
0.1293 0.0 0.0000
0.1312 0.0 0.0000
0.1329 0.0 0.0000
0.1344 0.0 0.0000
0.1357 0.0 0.0000
0.1369 0.0 0.0000
0.138 0.0 0.0000
0.1389 0.0 0.0000
0.1396 0.0 0.0000
0.1403 0.0 0.0000
0.1408 0.0 0.0000
0.1412 0.0 0.0000
0.1416 0.0 0.0000
0.1418 0.0 0.0000
SCALARS pressure float
LOOKUP_TABLE default
7.449
4.7094
4.2233
3.8612
3.5309
3.224
2.9371
2.6673
2.412
2.1689
1.9363
1.7132
1.4984
1.2912
1.0909
0.8969
0.7085
0.5251
0.346
0.1705
7.3367
4.7331
4.2252
3.8616
3.531
3.2241
2.9372
2.6674
2.412
2.1689
1.9364
1.7132
1.4984
1.2912
1.0909
0.8969
0.7085
0.5251
0.346
0.1705
7.1892
4.7846
4.2339
3.8636
3.5317
3.2244
2.9373
2.6675
2.412
2.1689
1.9364
1.7132
1.4984
1.2912
1.0909
0.8969
0.7085
0.5251
0.346
0.1705
7.0374
4.8495
4.2513
3.8687
3.5336
3.2252
2.9378
2.6678
2.4122
2.1691
1.9365
1.7133
1.4985
1.2912
1.0909
0.8969
0.7085
0.5251
0.3459
0.1705
6.8925
4.9161
4.2761
3.8774
3.5372
3.227
2.9388
2.6684
2.4127
2.1694
1.9367
1.7135
1.4986
1.2913
1.091
0.8969
0.7085
0.5251
0.3459
0.1704
6.7582
4.9781
4.3055
3.8893
3.5425
3.2298
2.9404
2.6695
2.4134
2.1699
1.9371
1.7138
1.4988
1.2915
1.0911
0.897
0.7085
0.5251
0.346
0.1704
6.6356
5.0324
4.337
3.9035
3.5494
3.2335
2.9427
2.671
2.4145
2.1707
1.9377
1.7142
1.4992
1.2918
1.0913
0.8971
0.7087
0.5252
0.346
0.1704
6.5247
5.0783
4.3684
3.9189
3.5573
3.238
2.9456
2.6729
2.4159
2.1718
1.9386
1.7149
1.4997
1.2922
1.0916
0.8974
0.7088
0.5253
0.3461
0.1704
6.4253
5.116
4.3985
3.9348
3.5658
3.243
2.9488
2.6752
2.4176
2.1731
1.9396
1.7157
1.5003
1.2927
1.092
0.8977
0.7091
0.5255
0.3462
0.1705
6.3366
5.1464
4.4262
3.9502
3.5744
3.2482
2.9523
2.6778
2.4196
2.1746
1.9408
1.7167
1.5011
1.2933
1.0926
0.8982
0.7094
0.5258
0.3464
0.1706
6.2583
5.1705
4.4513
3.9648
3.5827
3.2534
2.9559
2.6804
2.4216
2.1762
1.9421
1.7178
1.502
1.2941
1.0932
0.8986
0.7098
0.5261
0.3467
0.1708
6.1896
5.1895
4.4734
3.9782
3.5905
3.2583
2.9593
2.683
2.4236
2.1779
1.9435
1.7189
1.503
1.2949
1.0938
0.8992
0.7103
0.5265
0.347
0.171
6.1301
5.2041
4.4928
3.9903
3.5976
3.2629
2.9626
2.6855
2.4256
2.1795
1.9448
1.72
1.504
1.2957
1.0945
0.8998
0.7108
0.5268
0.3473
0.1713
6.0791
5.2152
4.5093
4.0009
3.6039
3.2669
2.9655
2.6877
2.4274
2.181
1.9461
1.7212
1.5049
1.2965
1.0952
0.9004
0.7113
0.5272
0.3476
0.1715
6.0361
5.2237
4.5232
4.01
3.6094
3.2705
2.968
2.6897
2.4291
2.1824
1.9473
1.7222
1.5058
1.2973
1.0959
0.9009
0.7117
0.5276
0.3479
0.1718
6.0008
5.2299
4.5347
4.0176
3.6139
3.2734
2.9702
2.6914
2.4305
2.1836
1.9483
1.7231
1.5066
1.298
1.0965
0.9015
0.7122
0.528
0.3482
0.172
5.9728
5.2345
4.5437
4.0237
3.6176
3.2758
2.9719
2.6927
2.4316
2.1846
1.9492
1.7238
1.5072
1.2986
1.097
0.9019
0.7125
0.5283
0.3484
0.1723
5.9519
5.2377
4.5505
4.0283
3.6204
3.2776
2.9732
2.6937
2.4324
2.1853
1.9498
1.7244
1.5078
1.299
1.0974
0.9022
0.7128
0.5285
0.3486
0.1724
5.9378
5.2399
4.5552
4.0315
3.6223
3.2788
2.974
2.6944
2.433
2.1858
1.9503
1.7248
1.5081
1.2993
1.0977
0.9025
0.713
0.5287
0.3488
0.1725
5.9306
5.2411
4.5575
4.033
3.6232
3.2794
2.9744
2.6947
2.4333
2.186
1.9505
1.725
1.5083
1.2995
1.0978
0.9026
0.7131
0.5288
0.3488
0.1726
