# vtk DataFile Version 3.0
2D flow
ASCII
DATASET STRUCTURED_GRID
DIMENSIONS 20 20 1
POINTS 400 float
0.0 0.0 0.0000
0.05 0.0 0.0000
0.1 0.0 0.0000
0.15 0.0 0.0000
0.2 0.0 0.0000
0.25 0.0 0.0000
0.3 0.0 0.0000
0.35 0.0 0.0000
0.4 0.0 0.0000
0.45 0.0 0.0000
0.5 0.0 0.0000
0.55 0.0 0.0000
0.6 0.0 0.0000
0.65 0.0 0.0000
0.7 0.0 0.0000
0.75 0.0 0.0000
0.8 0.0 0.0000
0.85 0.0 0.0000
0.9 0.0 0.0000
0.95 0.0 0.0000
0.0 0.005 0.0000
0.05 0.005 0.0000
0.1 0.005 0.0000
0.15 0.005 0.0000
0.2 0.005 0.0000
0.25 0.005 0.0000
0.3 0.005 0.0000
0.35 0.005 0.0000
0.4 0.005 0.0000
0.45 0.005 0.0000
0.5 0.005 0.0000
0.55 0.005 0.0000
0.6 0.005 0.0000
0.65 0.005 0.0000
0.7 0.005 0.0000
0.75 0.005 0.0000
0.8 0.005 0.0000
0.85 0.005 0.0000
0.9 0.005 0.0000
0.95 0.005 0.0000
0.0 0.01 0.0000
0.05 0.01 0.0000
0.1 0.01 0.0000
0.15 0.01 0.0000
0.2 0.01 0.0000
0.25 0.01 0.0000
0.3 0.01 0.0000
0.35 0.01 0.0000
0.4 0.01 0.0000
0.45 0.01 0.0000
0.5 0.01 0.0000
0.55 0.01 0.0000
0.6 0.01 0.0000
0.65 0.01 0.0000
0.7 0.01 0.0000
0.75 0.01 0.0000
0.8 0.01 0.0000
0.85 0.01 0.0000
0.9 0.01 0.0000
0.95 0.01 0.0000
0.0 0.015 0.0000
0.05 0.015 0.0000
0.1 0.015 0.0000
0.15 0.015 0.0000
0.2 0.015 0.0000
0.25 0.015 0.0000
0.3 0.015 0.0000
0.35 0.015 0.0000
0.4 0.015 0.0000
0.45 0.015 0.0000
0.5 0.015 0.0000
0.55 0.015 0.0000
0.6 0.015 0.0000
0.65 0.015 0.0000
0.7 0.015 0.0000
0.75 0.015 0.0000
0.8 0.015 0.0000
0.85 0.015 0.0000
0.9 0.015 0.0000
0.95 0.015 0.0000
0.0 0.02 0.0000
0.05 0.02 0.0000
0.1 0.02 0.0000
0.15 0.02 0.0000
0.2 0.02 0.0000
0.25 0.02 0.0000
0.3 0.02 0.0000
0.35 0.02 0.0000
0.4 0.02 0.0000
0.45 0.02 0.0000
0.5 0.02 0.0000
0.55 0.02 0.0000
0.6 0.02 0.0000
0.65 0.02 0.0000
0.7 0.02 0.0000
0.75 0.02 0.0000
0.8 0.02 0.0000
0.85 0.02 0.0000
0.9 0.02 0.0000
0.95 0.02 0.0000
0.0 0.025 0.0000
0.05 0.025 0.0000
0.1 0.025 0.0000
0.15 0.025 0.0000
0.2 0.025 0.0000
0.25 0.025 0.0000
0.3 0.025 0.0000
0.35 0.025 0.0000
0.4 0.025 0.0000
0.45 0.025 0.0000
0.5 0.025 0.0000
0.55 0.025 0.0000
0.6 0.025 0.0000
0.65 0.025 0.0000
0.7 0.025 0.0000
0.75 0.025 0.0000
0.8 0.025 0.0000
0.85 0.025 0.0000
0.9 0.025 0.0000
0.95 0.025 0.0000
0.0 0.03 0.0000
0.05 0.03 0.0000
0.1 0.03 0.0000
0.15 0.03 0.0000
0.2 0.03 0.0000
0.25 0.03 0.0000
0.3 0.03 0.0000
0.35 0.03 0.0000
0.4 0.03 0.0000
0.45 0.03 0.0000
0.5 0.03 0.0000
0.55 0.03 0.0000
0.6 0.03 0.0000
0.65 0.03 0.0000
0.7 0.03 0.0000
0.75 0.03 0.0000
0.8 0.03 0.0000
0.85 0.03 0.0000
0.9 0.03 0.0000
0.95 0.03 0.0000
0.0 0.035 0.0000
0.05 0.035 0.0000
0.1 0.035 0.0000
0.15 0.035 0.0000
0.2 0.035 0.0000
0.25 0.035 0.0000
0.3 0.035 0.0000
0.35 0.035 0.0000
0.4 0.035 0.0000
0.45 0.035 0.0000
0.5 0.035 0.0000
0.55 0.035 0.0000
0.6 0.035 0.0000
0.65 0.035 0.0000
0.7 0.035 0.0000
0.75 0.035 0.0000
0.8 0.035 0.0000
0.85 0.035 0.0000
0.9 0.035 0.0000
0.95 0.035 0.0000
0.0 0.04 0.0000
0.05 0.04 0.0000
0.1 0.04 0.0000
0.15 0.04 0.0000
0.2 0.04 0.0000
0.25 0.04 0.0000
0.3 0.04 0.0000
0.35 0.04 0.0000
0.4 0.04 0.0000
0.45 0.04 0.0000
0.5 0.04 0.0000
0.55 0.04 0.0000
0.6 0.04 0.0000
0.65 0.04 0.0000
0.7 0.04 0.0000
0.75 0.04 0.0000
0.8 0.04 0.0000
0.85 0.04 0.0000
0.9 0.04 0.0000
0.95 0.04 0.0000
0.0 0.045 0.0000
0.05 0.045 0.0000
0.1 0.045 0.0000
0.15 0.045 0.0000
0.2 0.045 0.0000
0.25 0.045 0.0000
0.3 0.045 0.0000
0.35 0.045 0.0000
0.4 0.045 0.0000
0.45 0.045 0.0000
0.5 0.045 0.0000
0.55 0.045 0.0000
0.6 0.045 0.0000
0.65 0.045 0.0000
0.7 0.045 0.0000
0.75 0.045 0.0000
0.8 0.045 0.0000
0.85 0.045 0.0000
0.9 0.045 0.0000
0.95 0.045 0.0000
0.0 0.05 0.0000
0.05 0.05 0.0000
0.1 0.05 0.0000
0.15 0.05 0.0000
0.2 0.05 0.0000
0.25 0.05 0.0000
0.3 0.05 0.0000
0.35 0.05 0.0000
0.4 0.05 0.0000
0.45 0.05 0.0000
0.5 0.05 0.0000
0.55 0.05 0.0000
0.6 0.05 0.0000
0.65 0.05 0.0000
0.7 0.05 0.0000
0.75 0.05 0.0000
0.8 0.05 0.0000
0.85 0.05 0.0000
0.9 0.05 0.0000
0.95 0.05 0.0000
0.0 0.055 0.0000
0.05 0.055 0.0000
0.1 0.055 0.0000
0.15 0.055 0.0000
0.2 0.055 0.0000
0.25 0.055 0.0000
0.3 0.055 0.0000
0.35 0.055 0.0000
0.4 0.055 0.0000
0.45 0.055 0.0000
0.5 0.055 0.0000
0.55 0.055 0.0000
0.6 0.055 0.0000
0.65 0.055 0.0000
0.7 0.055 0.0000
0.75 0.055 0.0000
0.8 0.055 0.0000
0.85 0.055 0.0000
0.9 0.055 0.0000
0.95 0.055 0.0000
0.0 0.06 0.0000
0.05 0.06 0.0000
0.1 0.06 0.0000
0.15 0.06 0.0000
0.2 0.06 0.0000
0.25 0.06 0.0000
0.3 0.06 0.0000
0.35 0.06 0.0000
0.4 0.06 0.0000
0.45 0.06 0.0000
0.5 0.06 0.0000
0.55 0.06 0.0000
0.6 0.06 0.0000
0.65 0.06 0.0000
0.7 0.06 0.0000
0.75 0.06 0.0000
0.8 0.06 0.0000
0.85 0.06 0.0000
0.9 0.06 0.0000
0.95 0.06 0.0000
0.0 0.065 0.0000
0.05 0.065 0.0000
0.1 0.065 0.0000
0.15 0.065 0.0000
0.2 0.065 0.0000
0.25 0.065 0.0000
0.3 0.065 0.0000
0.35 0.065 0.0000
0.4 0.065 0.0000
0.45 0.065 0.0000
0.5 0.065 0.0000
0.55 0.065 0.0000
0.6 0.065 0.0000
0.65 0.065 0.0000
0.7 0.065 0.0000
0.75 0.065 0.0000
0.8 0.065 0.0000
0.85 0.065 0.0000
0.9 0.065 0.0000
0.95 0.065 0.0000
0.0 0.07 0.0000
0.05 0.07 0.0000
0.1 0.07 0.0000
0.15 0.07 0.0000
0.2 0.07 0.0000
0.25 0.07 0.0000
0.3 0.07 0.0000
0.35 0.07 0.0000
0.4 0.07 0.0000
0.45 0.07 0.0000
0.5 0.07 0.0000
0.55 0.07 0.0000
0.6 0.07 0.0000
0.65 0.07 0.0000
0.7 0.07 0.0000
0.75 0.07 0.0000
0.8 0.07 0.0000
0.85 0.07 0.0000
0.9 0.07 0.0000
0.95 0.07 0.0000
0.0 0.075 0.0000
0.05 0.075 0.0000
0.1 0.075 0.0000
0.15 0.075 0.0000
0.2 0.075 0.0000
0.25 0.075 0.0000
0.3 0.075 0.0000
0.35 0.075 0.0000
0.4 0.075 0.0000
0.45 0.075 0.0000
0.5 0.075 0.0000
0.55 0.075 0.0000
0.6 0.075 0.0000
0.65 0.075 0.0000
0.7 0.075 0.0000
0.75 0.075 0.0000
0.8 0.075 0.0000
0.85 0.075 0.0000
0.9 0.075 0.0000
0.95 0.075 0.0000
0.0 0.08 0.0000
0.05 0.08 0.0000
0.1 0.08 0.0000
0.15 0.08 0.0000
0.2 0.08 0.0000
0.25 0.08 0.0000
0.3 0.08 0.0000
0.35 0.08 0.0000
0.4 0.08 0.0000
0.45 0.08 0.0000
0.5 0.08 0.0000
0.55 0.08 0.0000
0.6 0.08 0.0000
0.65 0.08 0.0000
0.7 0.08 0.0000
0.75 0.08 0.0000
0.8 0.08 0.0000
0.85 0.08 0.0000
0.9 0.08 0.0000
0.95 0.08 0.0000
0.0 0.085 0.0000
0.05 0.085 0.0000
0.1 0.085 0.0000
0.15 0.085 0.0000
0.2 0.085 0.0000
0.25 0.085 0.0000
0.3 0.085 0.0000
0.35 0.085 0.0000
0.4 0.085 0.0000
0.45 0.085 0.0000
0.5 0.085 0.0000
0.55 0.085 0.0000
0.6 0.085 0.0000
0.65 0.085 0.0000
0.7 0.085 0.0000
0.75 0.085 0.0000
0.8 0.085 0.0000
0.85 0.085 0.0000
0.9 0.085 0.0000
0.95 0.085 0.0000
0.0 0.09 0.0000
0.05 0.09 0.0000
0.1 0.09 0.0000
0.15 0.09 0.0000
0.2 0.09 0.0000
0.25 0.09 0.0000
0.3 0.09 0.0000
0.35 0.09 0.0000
0.4 0.09 0.0000
0.45 0.09 0.0000
0.5 0.09 0.0000
0.55 0.09 0.0000
0.6 0.09 0.0000
0.65 0.09 0.0000
0.7 0.09 0.0000
0.75 0.09 0.0000
0.8 0.09 0.0000
0.85 0.09 0.0000
0.9 0.09 0.0000
0.95 0.09 0.0000
0.0 0.095 0.0000
0.05 0.095 0.0000
0.1 0.095 0.0000
0.15 0.095 0.0000
0.2 0.095 0.0000
0.25 0.095 0.0000
0.3 0.095 0.0000
0.35 0.095 0.0000
0.4 0.095 0.0000
0.45 0.095 0.0000
0.5 0.095 0.0000
0.55 0.095 0.0000
0.6 0.095 0.0000
0.65 0.095 0.0000
0.7 0.095 0.0000
0.75 0.095 0.0000
0.8 0.095 0.0000
0.85 0.095 0.0000
0.9 0.095 0.0000
0.95 0.095 0.0000
POINT_DATA 400
VECTORS velocity float
0.0 0.0 0.0000
0.0 0.0 0.0000
0.0 0.0 0.0000
0.0 0.0 0.0000
0.0 0.0 0.0000
0.0 0.0 0.0000
0.0 0.0 0.0000
0.0 0.0 0.0000
0.0 0.0 0.0000
0.0 0.0 0.0000
0.0 0.0 0.0000
0.0 0.0 0.0000
0.0 0.0 0.0000
0.0 0.0 0.0000
0.0 0.0 0.0000
0.0 0.0 0.0000
0.0 0.0 0.0000
0.0 0.0 0.0000
0.0 0.0 0.0000
0.0 0.0 0.0000
0.1 0.0 0.0000
0.0448 0.0023 0.0000
0.0324 0.0009 0.0000
0.0258 0.0003 0.0000
0.023 0.0002 0.0000
0.0212 0.0001 0.0000
0.0201 0.0001 0.0000
0.0193 0.0001 0.0000
0.0186 0.0 0.0000
0.0181 0.0 0.0000
0.0177 0.0 0.0000
0.0173 0.0 0.0000
0.017 0.0 0.0000
0.0168 0.0 0.0000
0.0166 0.0 0.0000
0.0164 0.0 0.0000
0.0162 0.0 0.0000
0.016 0.0 0.0000
0.0161 0.0 0.0000
0.0154 0.0 0.0000
0.1 0.0 0.0000
0.0729 0.0048 0.0000
0.0588 0.0021 0.0000
0.0489 0.0009 0.0000
0.0439 0.0005 0.0000
0.0407 0.0003 0.0000
0.0386 0.0002 0.0000
0.0371 0.0002 0.0000
0.0359 0.0001 0.0000
0.0349 0.0001 0.0000
0.0341 0.0001 0.0000
0.0335 0.0001 0.0000
0.0329 0.0001 0.0000
0.0325 0.0001 0.0000
0.0321 0.0 0.0000
0.0317 0.0 0.0000
0.0314 0.0 0.0000
0.031 0.0 0.0000
0.0311 0.0 0.0000
0.0301 0.0 0.0000
0.1 0.0 0.0000
0.0892 0.0064 0.0000
0.0784 0.0034 0.0000
0.0683 0.0017 0.0000
0.0623 0.001 0.0000
0.0583 0.0006 0.0000
0.0554 0.0004 0.0000
0.0533 0.0003 0.0000
0.0517 0.0003 0.0000
0.0504 0.0002 0.0000
0.0493 0.0002 0.0000
0.0485 0.0001 0.0000
0.0477 0.0001 0.0000
0.047 0.0001 0.0000
0.0465 0.0001 0.0000
0.046 0.0001 0.0000
0.0456 0.0001 0.0000
0.0451 0.0001 0.0000
0.045 0.0001 0.0000
0.044 0.0 0.0000
0.1 0.0 0.0000
0.0982 0.0072 0.0000
0.092 0.0043 0.0000
0.0836 0.0025 0.0000
0.0777 0.0015 0.0000
0.0735 0.001 0.0000
0.0703 0.0007 0.0000
0.0679 0.0005 0.0000
0.066 0.0004 0.0000
0.0645 0.0003 0.0000
0.0632 0.0003 0.0000
0.0621 0.0002 0.0000
0.0612 0.0002 0.0000
0.0605 0.0002 0.0000
0.0598 0.0001 0.0000
0.0592 0.0001 0.0000
0.0587 0.0001 0.0000
0.0581 0.0001 0.0000
0.058 0.0001 0.0000
0.057 0.0 0.0000
0.1 0.0 0.0000
0.103 0.0073 0.0000
0.1009 0.0049 0.0000
0.095 0.0031 0.0000
0.0901 0.002 0.0000
0.0861 0.0014 0.0000
0.0831 0.001 0.0000
0.0806 0.0008 0.0000
0.0786 0.0006 0.0000
0.077 0.0005 0.0000
0.0757 0.0004 0.0000
0.0745 0.0003 0.0000
0.0735 0.0003 0.0000
0.0727 0.0002 0.0000
0.0719 0.0002 0.0000
0.0713 0.0002 0.0000
0.0708 0.0002 0.0000
0.0701 0.0001 0.0000
0.0699 0.0002 0.0000
0.069 0.0 0.0000
0.1 0.0 0.0000
0.1053 0.0071 0.0000
0.1063 0.0052 0.0000
0.1029 0.0036 0.0000
0.0995 0.0024 0.0000
0.0963 0.0017 0.0000
0.0936 0.0013 0.0000
0.0914 0.001 0.0000
0.0895 0.0008 0.0000
0.088 0.0006 0.0000
0.0866 0.0005 0.0000
0.0855 0.0004 0.0000
0.0845 0.0004 0.0000
0.0836 0.0003 0.0000
0.0829 0.0003 0.0000
0.0822 0.0003 0.0000
0.0817 0.0002 0.0000
0.0811 0.0002 0.0000
0.0808 0.0002 0.0000
0.0799 0.0 0.0000
0.1 0.0 0.0000
0.1061 0.0067 0.0000
0.1093 0.0052 0.0000
0.1082 0.0038 0.0000
0.1063 0.0027 0.0000
0.1041 0.0019 0.0000
0.1021 0.0015 0.0000
0.1003 0.0012 0.0000
0.0987 0.0009 0.0000
0.0973 0.0008 0.0000
0.0961 0.0006 0.0000
0.0951 0.0006 0.0000
0.0942 0.0005 0.0000
0.0934 0.0004 0.0000
0.0927 0.0004 0.0000
0.092 0.0003 0.0000
0.0915 0.0003 0.0000
0.0909 0.0002 0.0000
0.0907 0.0002 0.0000
0.0898 0.0 0.0000
0.1 0.0 0.0000
0.1062 0.0062 0.0000
0.1108 0.0051 0.0000
0.1115 0.0038 0.0000
0.111 0.0028 0.0000
0.1099 0.0021 0.0000
0.1086 0.0016 0.0000
0.1074 0.0013 0.0000
0.1062 0.0011 0.0000
0.1051 0.0009 0.0000
0.1041 0.0008 0.0000
0.1033 0.0006 0.0000
0.1025 0.0006 0.0000
0.1018 0.0005 0.0000
0.1012 0.0004 0.0000
0.1006 0.0004 0.0000
0.1002 0.0003 0.0000
0.0997 0.0003 0.0000
0.0995 0.0003 0.0000
0.0987 0.0 0.0000
0.1 0.0 0.0000
0.1059 0.0056 0.0000
0.1114 0.0048 0.0000
0.1133 0.0037 0.0000
0.114 0.0028 0.0000
0.1139 0.0022 0.0000
0.1134 0.0017 0.0000
0.1128 0.0014 0.0000
0.1121 0.0012 0.0000
0.1114 0.001 0.0000
0.1107 0.0008 0.0000
0.1101 0.0007 0.0000
0.1096 0.0006 0.0000
0.109 0.0005 0.0000
0.1086 0.0005 0.0000
0.1081 0.0004 0.0000
0.1078 0.0004 0.0000
0.1073 0.0003 0.0000
0.1072 0.0003 0.0000
0.1066 0.0 0.0000
0.1 0.0 0.0000
0.1055 0.005 0.0000
0.1113 0.0044 0.0000
0.1142 0.0035 0.0000
0.1158 0.0027 0.0000
0.1166 0.0022 0.0000
0.1169 0.0017 0.0000
0.1168 0.0014 0.0000
0.1166 0.0012 0.0000
0.1164 0.001 0.0000
0.116 0.0009 0.0000
0.1157 0.0008 0.0000
0.1154 0.0007 0.0000
0.1151 0.0006 0.0000
0.1148 0.0005 0.0000
0.1145 0.0005 0.0000
0.1143 0.0004 0.0000
0.114 0.0004 0.0000
0.1139 0.0003 0.0000
0.1134 0.0 0.0000
0.1 0.0 0.0000
0.105 0.0044 0.0000
0.111 0.004 0.0000
0.1145 0.0033 0.0000
0.1168 0.0026 0.0000
0.1183 0.0021 0.0000
0.1192 0.0017 0.0000
0.1197 0.0014 0.0000
0.12 0.0012 0.0000
0.1201 0.001 0.0000
0.1202 0.0009 0.0000
0.1202 0.0008 0.0000
0.1201 0.0007 0.0000
0.12 0.0006 0.0000
0.12 0.0005 0.0000
0.1198 0.0005 0.0000
0.1198 0.0004 0.0000
0.1196 0.0004 0.0000
0.1197 0.0003 0.0000
0.1193 0.0 0.0000
0.1 0.0 0.0000
0.1045 0.0038 0.0000
0.1106 0.0035 0.0000
0.1144 0.003 0.0000
0.1173 0.0024 0.0000
0.1192 0.0019 0.0000
0.1206 0.0016 0.0000
0.1217 0.0014 0.0000
0.1224 0.0012 0.0000
0.1229 0.001 0.0000
0.1233 0.0009 0.0000
0.1236 0.0008 0.0000
0.1239 0.0007 0.0000
0.124 0.0006 0.0000
0.1241 0.0005 0.0000
0.1242 0.0005 0.0000
0.1243 0.0004 0.0000
0.1243 0.0004 0.0000
0.1245 0.0003 0.0000
0.1242 0.0 0.0000
0.1 0.0 0.0000
0.1041 0.0032 0.0000
0.1101 0.0031 0.0000
0.1142 0.0026 0.0000
0.1173 0.0021 0.0000
0.1197 0.0017 0.0000
0.1215 0.0015 0.0000
0.1229 0.0013 0.0000
0.1241 0.0011 0.0000
0.1249 0.0009 0.0000
0.1257 0.0008 0.0000
0.1262 0.0007 0.0000
0.1267 0.0006 0.0000
0.1271 0.0006 0.0000
0.1275 0.0005 0.0000
0.1278 0.0005 0.0000
0.128 0.0004 0.0000
0.1282 0.0004 0.0000
0.1285 0.0003 0.0000
0.1283 0.0 0.0000
0.1 0.0 0.0000
0.1037 0.0027 0.0000
0.1096 0.0026 0.0000
0.1138 0.0022 0.0000
0.1172 0.0018 0.0000
0.1199 0.0015 0.0000
0.122 0.0013 0.0000
0.1237 0.0011 0.0000
0.1251 0.001 0.0000
0.1263 0.0008 0.0000
0.1273 0.0007 0.0000
0.1282 0.0007 0.0000
0.1289 0.0006 0.0000
0.1295 0.0005 0.0000
0.13 0.0005 0.0000
0.1305 0.0004 0.0000
0.1309 0.0004 0.0000
0.1312 0.0003 0.0000
0.1317 0.0003 0.0000
0.1316 0.0 0.0000
0.1 0.0 0.0000
0.1034 0.0022 0.0000
0.1092 0.0021 0.0000
0.1135 0.0018 0.0000
0.117 0.0015 0.0000
0.1199 0.0013 0.0000
0.1222 0.0011 0.0000
0.1242 0.0009 0.0000
0.1258 0.0008 0.0000
0.1272 0.0007 0.0000
0.1285 0.0006 0.0000
0.1295 0.0006 0.0000
0.1305 0.0005 0.0000
0.1313 0.0005 0.0000
0.132 0.0004 0.0000
0.1326 0.0004 0.0000
0.1332 0.0003 0.0000
0.1336 0.0003 0.0000
0.1342 0.0003 0.0000
0.1342 0.0 0.0000
0.1 0.0 0.0000
0.1032 0.0017 0.0000
0.1089 0.0016 0.0000
0.1132 0.0014 0.0000
0.1168 0.0012 0.0000
0.1198 0.001 0.0000
0.1223 0.0009 0.0000
0.1244 0.0007 0.0000
0.1262 0.0007 0.0000
0.1278 0.0006 0.0000
0.1292 0.0005 0.0000
0.1305 0.0005 0.0000
0.1315 0.0004 0.0000
0.1325 0.0004 0.0000
0.1334 0.0003 0.0000
0.1341 0.0003 0.0000
0.1348 0.0003 0.0000
0.1354 0.0002 0.0000
0.1361 0.0002 0.0000
0.1362 0.0 0.0000
0.1 0.0 0.0000
0.103 0.0012 0.0000
0.1087 0.0012 0.0000
0.113 0.001 0.0000
0.1167 0.0009 0.0000
0.1197 0.0007 0.0000
0.1223 0.0006 0.0000
0.1245 0.0005 0.0000
0.1264 0.0005 0.0000
0.1282 0.0004 0.0000
0.1297 0.0004 0.0000
0.131 0.0003 0.0000
0.1322 0.0003 0.0000
0.1333 0.0003 0.0000
0.1343 0.0002 0.0000
0.1351 0.0002 0.0000
0.1359 0.0002 0.0000
0.1366 0.0002 0.0000
0.1373 0.0002 0.0000
0.1375 0.0 0.0000
0.1 0.0 0.0000
0.1029 0.0007 0.0000
0.1085 0.0007 0.0000
0.1129 0.0006 0.0000
0.1166 0.0005 0.0000
0.1196 0.0004 0.0000
0.1222 0.0004 0.0000
0.1245 0.0003 0.0000
0.1265 0.0003 0.0000
0.1283 0.0003 0.0000
0.1299 0.0002 0.0000
0.1314 0.0002 0.0000
0.1326 0.0002 0.0000
0.1338 0.0002 0.0000
0.1348 0.0002 0.0000
0.1357 0.0001 0.0000
0.1366 0.0001 0.0000
0.1373 0.0001 0.0000
0.1381 0.0001 0.0000
0.1383 0.0 0.0000
0.1 0.0 0.0000
0.1029 0.0 0.0000
0.1085 0.0 0.0000
0.1128 0.0 0.0000
0.1165 0.0 0.0000
0.1196 0.0 0.0000
0.1222 0.0 0.0000
0.1245 0.0 0.0000
0.1266 0.0 0.0000
0.1284 0.0 0.0000
0.13 0.0 0.0000
0.1315 0.0 0.0000
0.1328 0.0 0.0000
0.1339 0.0 0.0000
0.135 0.0 0.0000
0.1359 0.0 0.0000
0.1368 0.0 0.0000
0.1375 0.0 0.0000
0.1383 0.0 0.0000
0.1385 0.0 0.0000
SCALARS pressure float
LOOKUP_TABLE default
8.126
6.2388
4.5612
4.072
3.6555
3.3115
2.9992
2.7103
2.4393
2.1825
1.9377
1.7026
1.4763
1.2566
1.0448
0.8348
0.6385
0.4261
0.2641
0.0
8.1674
6.2578
4.5705
4.077
3.6579
3.313
3.0002
2.7111
2.4398
2.183
1.938
1.7029
1.4766
1.2568
1.045
0.8349
0.6387
0.4261
0.2646
0.0
7.9623
6.215
4.5835
4.086
3.6627
3.3159
3.0021
2.7125
2.4409
2.1839
1.9388
1.7035
1.4771
1.2572
1.0454
0.8352
0.639
0.4263
0.265
0.0
7.6484
6.1291
4.5971
4.0948
3.6678
3.3188
3.004
2.7138
2.442
2.1847
1.9394
1.7041
1.4776
1.2576
1.0458
0.8355
0.6393
0.4265
0.2652
0.0
7.3033
6.0382
4.6124
4.1045
3.6736
3.322
3.0061
2.7152
2.443
2.1854
1.94
1.7046
1.478
1.258
1.0461
0.8358
0.6395
0.4267
0.2652
0.0
6.9681
5.9501
4.628
4.1154
3.6805
3.3257
3.0084
2.7167
2.444
2.1862
1.9407
1.7051
1.4784
1.2583
1.0463
0.8361
0.6397
0.427
0.2651
0.0
6.6624
5.8671
4.6426
4.1269
3.6884
3.3302
3.0111
2.7185
2.4452
2.1871
1.9413
1.7056
1.4788
1.2587
1.0466
0.8364
0.6398
0.4272
0.2649
0.0
6.3939
5.7911
4.6556
4.1385
3.6969
3.3351
3.0142
2.7205
2.4466
2.1881
1.9421
1.7062
1.4793
1.2591
1.0469
0.8366
0.64
0.4275
0.2647
0.0
6.1637
5.7226
4.6667
4.1498
3.7057
3.3405
3.0176
2.7227
2.4481
2.1892
1.9429
1.7069
1.4798
1.2595
1.0473
0.837
0.6402
0.4278
0.2645
0.0
5.9696
5.6616
4.6759
4.1604
3.7144
3.346
3.0211
2.725
2.4498
2.1904
1.9438
1.7076
1.4804
1.26
1.0477
0.8373
0.6404
0.4281
0.2643
0.0
5.8081
5.6079
4.6833
4.1701
3.7226
3.3514
3.0247
2.7275
2.4515
2.1917
1.9448
1.7083
1.481
1.2605
1.0481
0.8377
0.6406
0.4285
0.2642
0.0
5.675
5.5609
4.6892
4.1787
3.7303
3.3567
3.0283
2.7299
2.4533
2.193
1.9458
1.7091
1.4816
1.261
1.0485
0.8381
0.6408
0.4288
0.2642
0.0
5.5665
5.5203
4.6937
4.1862
3.7373
3.3615
3.0316
2.7322
2.4549
2.1943
1.9468
1.7099
1.4823
1.2616
1.0489
0.8385
0.641
0.4292
0.2642
0.0
5.479
5.4856
4.6971
4.1926
3.7434
3.3658
3.0346
2.7344
2.4565
2.1955
1.9478
1.7107
1.4829
1.2621
1.0493
0.8389
0.6413
0.4295
0.2643
0.0
5.4096
5.4564
4.6996
4.198
3.7487
3.3697
3.0373
2.7363
2.458
2.1966
1.9486
1.7114
1.4835
1.2626
1.0497
0.8393
0.6416
0.4299
0.2644
0.0
5.3559
5.4326
4.7013
4.2023
3.7531
3.3728
3.0396
2.738
2.4592
2.1976
1.9494
1.712
1.484
1.263
1.0501
0.8396
0.6418
0.4302
0.2645
0.0
5.3159
5.4139
4.7026
4.2058
3.7566
3.3755
3.0415
2.7394
2.4603
2.1984
1.9501
1.7126
1.4845
1.2634
1.0505
0.8399
0.642
0.4304
0.2647
0.0
5.2883
5.4004
4.7039
4.2088
3.7597
3.3778
3.0433
2.7407
2.4613
2.1993
1.9508
1.7132
1.485
1.2639
1.0508
0.8403
0.6423
0.4307
0.2649
0.0
5.272
5.3893
4.7024
4.2089
3.7602
3.3781
3.0433
2.7407
2.4612
2.1991
1.9506
1.713
1.4848
1.2637
1.0507
0.8401
0.6421
0.4306
0.2647
0.0
5.2666
5.3799
4.6955
4.2033
3.7556
3.3742
3.0399
2.7376
2.4585
2.1967
1.9484
1.7111
1.483
1.2621
1.0492
0.8388
0.6409
0.4296
0.2638
0.0
