# vtk DataFile Version 3.0
2D flow
ASCII
DATASET STRUCTURED_GRID
DIMENSIONS 200 100 1
POINTS 20000 float
-0.38 0.0 0.0000
-0.36 0.0 0.0000
-0.34 0.0 0.0000
-0.32 0.0 0.0000
-0.3 0.0 0.0000
-0.28 0.0 0.0000
-0.26 0.0 0.0000
-0.24 0.0 0.0000
-0.22 0.0 0.0000
-0.2 0.0 0.0000
-0.18 0.0 0.0000
-0.16 0.0 0.0000
-0.14 0.0 0.0000
-0.12 0.0 0.0000
-0.1 0.0 0.0000
-0.08 0.0 0.0000
-0.06 0.0 0.0000
-0.04 0.0 0.0000
-0.02 0.0 0.0000
0.0 0.0 0.0000
0.02 0.0 0.0000
0.04 0.0 0.0000
0.06 0.0 0.0000
0.08 0.0 0.0000
0.1 0.0 0.0000
0.12 0.0 0.0000
0.14 0.0 0.0000
0.16 0.0 0.0000
0.18 0.0 0.0000
0.2 0.0 0.0000
0.22 0.0 0.0000
0.24 0.0 0.0000
0.26 0.0 0.0000
0.28 0.0 0.0000
0.3 0.0 0.0000
0.32 0.0 0.0000
0.34 0.0 0.0000
0.36 0.0 0.0000
0.38 0.0 0.0000
0.4 0.0 0.0000
0.42 0.0 0.0000
0.44 0.0 0.0000
0.46 0.0 0.0000
0.48 0.0 0.0000
0.5 0.0 0.0000
0.52 0.0 0.0000
0.54 0.0 0.0000
0.56 0.0 0.0000
0.58 0.0 0.0000
0.6 0.0 0.0000
0.62 0.0 0.0000
0.64 0.0 0.0000
0.66 0.0 0.0000
0.68 0.0 0.0000
0.7 0.0 0.0000
0.72 0.0 0.0000
0.74 0.0 0.0000
0.76 0.0 0.0000
0.78 0.0 0.0000
0.8 0.0 0.0000
0.82 0.0 0.0000
0.84 0.0 0.0000
0.86 0.0 0.0000
0.88 0.0 0.0000
0.9 0.0 0.0000
0.92 0.0 0.0000
0.94 0.0 0.0000
0.96 0.0 0.0000
0.98 0.0 0.0000
1.0 0.0 0.0000
1.02 0.0 0.0000
1.04 0.0 0.0000
1.06 0.0 0.0000
1.08 0.0 0.0000
1.1 0.0 0.0000
1.12 0.0 0.0000
1.14 0.0 0.0000
1.16 0.0 0.0000
1.18 0.0 0.0000
1.2 0.0 0.0000
1.22 0.0 0.0000
1.24 0.0 0.0000
1.26 0.0 0.0000
1.28 0.0 0.0000
1.3 0.0 0.0000
1.32 0.0 0.0000
1.34 0.0 0.0000
1.36 0.0 0.0000
1.38 0.0 0.0000
1.4 0.0 0.0000
1.42 0.0 0.0000
1.44 0.0 0.0000
1.46 0.0 0.0000
1.48 0.0 0.0000
1.5 0.0 0.0000
1.52 0.0 0.0000
1.54 0.0 0.0000
1.56 0.0 0.0000
1.58 0.0 0.0000
1.6 0.0 0.0000
1.62 0.0 0.0000
1.64 0.0 0.0000
1.66 0.0 0.0000
1.68 0.0 0.0000
1.7 0.0 0.0000
1.72 0.0 0.0000
1.74 0.0 0.0000
1.76 0.0 0.0000
1.78 0.0 0.0000
1.8 0.0 0.0000
1.82 0.0 0.0000
1.84 0.0 0.0000
1.86 0.0 0.0000
1.88 0.0 0.0000
1.9 0.0 0.0000
1.92 0.0 0.0000
1.94 0.0 0.0000
1.96 0.0 0.0000
1.98 0.0 0.0000
2.0 0.0 0.0000
2.02 0.0 0.0000
2.04 0.0 0.0000
2.06 0.0 0.0000
2.08 0.0 0.0000
2.1 0.0 0.0000
2.12 0.0 0.0000
2.14 0.0 0.0000
2.16 0.0 0.0000
2.18 0.0 0.0000
2.2 0.0 0.0000
2.22 0.0 0.0000
2.24 0.0 0.0000
2.26 0.0 0.0000
2.28 0.0 0.0000
2.3 0.0 0.0000
2.32 0.0 0.0000
2.34 0.0 0.0000
2.36 0.0 0.0000
2.38 0.0 0.0000
2.4 0.0 0.0000
2.42 0.0 0.0000
2.44 0.0 0.0000
2.46 0.0 0.0000
2.48 0.0 0.0000
2.5 0.0 0.0000
2.52 0.0 0.0000
2.54 0.0 0.0000
2.56 0.0 0.0000
2.58 0.0 0.0000
2.6 0.0 0.0000
2.62 0.0 0.0000
2.64 0.0 0.0000
2.66 0.0 0.0000
2.68 0.0 0.0000
2.7 0.0 0.0000
2.72 0.0 0.0000
2.74 0.0 0.0000
2.76 0.0 0.0000
2.78 0.0 0.0000
2.8 0.0 0.0000
2.82 0.0 0.0000
2.84 0.0 0.0000
2.86 0.0 0.0000
2.88 0.0 0.0000
2.9 0.0 0.0000
2.92 0.0 0.0000
2.94 0.0 0.0000
2.96 0.0 0.0000
2.98 0.0 0.0000
3.0 0.0 0.0000
3.02 0.0 0.0000
3.04 0.0 0.0000
3.06 0.0 0.0000
3.08 0.0 0.0000
3.1 0.0 0.0000
3.12 0.0 0.0000
3.14 0.0 0.0000
3.16 0.0 0.0000
3.18 0.0 0.0000
3.2 0.0 0.0000
3.22 0.0 0.0000
3.24 0.0 0.0000
3.26 0.0 0.0000
3.28 0.0 0.0000
3.3 0.0 0.0000
3.32 0.0 0.0000
3.34 0.0 0.0000
3.36 0.0 0.0000
3.38 0.0 0.0000
3.4 0.0 0.0000
3.42 0.0 0.0000
3.44 0.0 0.0000
3.46 0.0 0.0000
3.48 0.0 0.0000
3.5 0.0 0.0000
3.52 0.0 0.0000
3.54 0.0 0.0000
3.56 0.0 0.0000
3.58 0.0 0.0000
3.6 0.0 0.0000
-0.38 0.02 0.0000
-0.36 0.02 0.0000
-0.34 0.02 0.0000
-0.32 0.02 0.0000
-0.3 0.02 0.0000
-0.28 0.02 0.0000
-0.26 0.02 0.0000
-0.24 0.02 0.0000
-0.22 0.02 0.0000
-0.2 0.02 0.0000
-0.18 0.02 0.0000
-0.16 0.02 0.0000
-0.14 0.02 0.0000
-0.12 0.02 0.0000
-0.1 0.02 0.0000
-0.08 0.02 0.0000
-0.06 0.02 0.0000
-0.04 0.02 0.0000
-0.02 0.02 0.0000
0.0 0.02 0.0000
0.02 0.02 0.0000
0.04 0.02 0.0000
0.06 0.02 0.0000
0.08 0.02 0.0000
0.1 0.02 0.0000
0.12 0.02 0.0000
0.14 0.02 0.0000
0.16 0.02 0.0000
0.18 0.02 0.0000
0.2 0.02 0.0000
0.22 0.02 0.0000
0.24 0.02 0.0000
0.26 0.02 0.0000
0.28 0.02 0.0000
0.3 0.02 0.0000
0.32 0.02 0.0000
0.34 0.02 0.0000
0.36 0.02 0.0000
0.38 0.02 0.0000
0.4 0.02 0.0000
0.42 0.02 0.0000
0.44 0.02 0.0000
0.46 0.02 0.0000
0.48 0.02 0.0000
0.5 0.02 0.0000
0.52 0.02 0.0000
0.54 0.02 0.0000
0.56 0.02 0.0000
0.58 0.02 0.0000
0.6 0.02 0.0000
0.62 0.02 0.0000
0.64 0.02 0.0000
0.66 0.02 0.0000
0.68 0.02 0.0000
0.7 0.02 0.0000
0.72 0.02 0.0000
0.74 0.02 0.0000
0.76 0.02 0.0000
0.78 0.02 0.0000
0.8 0.02 0.0000
0.82 0.02 0.0000
0.84 0.02 0.0000
0.86 0.02 0.0000
0.88 0.02 0.0000
0.9 0.02 0.0000
0.92 0.02 0.0000
0.94 0.02 0.0000
0.96 0.02 0.0000
0.98 0.02 0.0000
1.0 0.02 0.0000
1.02 0.02 0.0000
1.04 0.02 0.0000
1.06 0.02 0.0000
1.08 0.02 0.0000
1.1 0.02 0.0000
1.12 0.02 0.0000
1.14 0.02 0.0000
1.16 0.02 0.0000
1.18 0.02 0.0000
1.2 0.02 0.0000
1.22 0.02 0.0000
1.24 0.02 0.0000
1.26 0.02 0.0000
1.28 0.02 0.0000
1.3 0.02 0.0000
1.32 0.02 0.0000
1.34 0.02 0.0000
1.36 0.02 0.0000
1.38 0.02 0.0000
1.4 0.02 0.0000
1.42 0.02 0.0000
1.44 0.02 0.0000
1.46 0.02 0.0000
1.48 0.02 0.0000
1.5 0.02 0.0000
1.52 0.02 0.0000
1.54 0.02 0.0000
1.56 0.02 0.0000
1.58 0.02 0.0000
1.6 0.02 0.0000
1.62 0.02 0.0000
1.64 0.02 0.0000
1.66 0.02 0.0000
1.68 0.02 0.0000
1.7 0.02 0.0000
1.72 0.02 0.0000
1.74 0.02 0.0000
1.76 0.02 0.0000
1.78 0.02 0.0000
1.8 0.02 0.0000
1.82 0.02 0.0000
1.84 0.02 0.0000
1.86 0.02 0.0000
1.88 0.02 0.0000
1.9 0.02 0.0000
1.92 0.02 0.0000
1.94 0.02 0.0000
1.96 0.02 0.0000
1.98 0.02 0.0000
2.0 0.02 0.0000
2.02 0.02 0.0000
2.04 0.02 0.0000
2.06 0.02 0.0000
2.08 0.02 0.0000
2.1 0.02 0.0000
2.12 0.02 0.0000
2.14 0.02 0.0000
2.16 0.02 0.0000
2.18 0.02 0.0000
2.2 0.02 0.0000
2.22 0.02 0.0000
2.24 0.02 0.0000
2.26 0.02 0.0000
2.28 0.02 0.0000
2.3 0.02 0.0000
2.32 0.02 0.0000
2.34 0.02 0.0000
2.36 0.02 0.0000
2.38 0.02 0.0000
2.4 0.02 0.0000
2.42 0.02 0.0000
2.44 0.02 0.0000
2.46 0.02 0.0000
2.48 0.02 0.0000
2.5 0.02 0.0000
2.52 0.02 0.0000
2.54 0.02 0.0000
2.56 0.02 0.0000
2.58 0.02 0.0000
2.6 0.02 0.0000
2.62 0.02 0.0000
2.64 0.02 0.0000
2.66 0.02 0.0000
2.68 0.02 0.0000
2.7 0.02 0.0000
2.72 0.02 0.0000
2.74 0.02 0.0000
2.76 0.02 0.0000
2.78 0.02 0.0000
2.8 0.02 0.0000
2.82 0.02 0.0000
2.84 0.02 0.0000
2.86 0.02 0.0000
2.88 0.02 0.0000
2.9 0.02 0.0000
2.92 0.02 0.0000
2.94 0.02 0.0000
2.96 0.02 0.0000
2.98 0.02 0.0000
3.0 0.02 0.0000
3.02 0.02 0.0000
3.04 0.02 0.0000
3.06 0.02 0.0000
3.08 0.02 0.0000
3.1 0.02 0.0000
3.12 0.02 0.0000
3.14 0.02 0.0000
3.16 0.02 0.0000
3.18 0.02 0.0000
3.2 0.02 0.0000
3.22 0.02 0.0000
3.24 0.02 0.0000
3.26 0.02 0.0000
3.28 0.02 0.0000
3.3 0.02 0.0000
3.32 0.02 0.0000
3.34 0.02 0.0000
3.36 0.02 0.0000
3.38 0.02 0.0000
3.4 0.02 0.0000
3.42 0.02 0.0000
3.44 0.02 0.0000
3.46 0.02 0.0000
3.48 0.02 0.0000
3.5 0.02 0.0000
3.52 0.02 0.0000
3.54 0.02 0.0000
3.56 0.02 0.0000
3.58 0.02 0.0000
3.6 0.02 0.0000
-0.38 0.04 0.0000
-0.36 0.04 0.0000
-0.34 0.04 0.0000
-0.32 0.04 0.0000
-0.3 0.04 0.0000
-0.28 0.04 0.0000
-0.26 0.04 0.0000
-0.24 0.04 0.0000
-0.22 0.04 0.0000
-0.2 0.04 0.0000
-0.18 0.04 0.0000
-0.16 0.04 0.0000
-0.14 0.04 0.0000
-0.12 0.04 0.0000
-0.1 0.04 0.0000
-0.08 0.04 0.0000
-0.06 0.04 0.0000
-0.04 0.04 0.0000
-0.02 0.04 0.0000
0.0 0.04 0.0000
0.02 0.04 0.0000
0.04 0.04 0.0000
0.06 0.04 0.0000
0.08 0.04 0.0000
0.1 0.04 0.0000
0.12 0.04 0.0000
0.14 0.04 0.0000
0.16 0.04 0.0000
0.18 0.04 0.0000
0.2 0.04 0.0000
0.22 0.04 0.0000
0.24 0.04 0.0000
0.26 0.04 0.0000
0.28 0.04 0.0000
0.3 0.04 0.0000
0.32 0.04 0.0000
0.34 0.04 0.0000
0.36 0.04 0.0000
0.38 0.04 0.0000
0.4 0.04 0.0000
0.42 0.04 0.0000
0.44 0.04 0.0000
0.46 0.04 0.0000
0.48 0.04 0.0000
0.5 0.04 0.0000
0.52 0.04 0.0000
0.54 0.04 0.0000
0.56 0.04 0.0000
0.58 0.04 0.0000
0.6 0.04 0.0000
0.62 0.04 0.0000
0.64 0.04 0.0000
0.66 0.04 0.0000
0.68 0.04 0.0000
0.7 0.04 0.0000
0.72 0.04 0.0000
0.74 0.04 0.0000
0.76 0.04 0.0000
0.78 0.04 0.0000
0.8 0.04 0.0000
0.82 0.04 0.0000
0.84 0.04 0.0000
0.86 0.04 0.0000
0.88 0.04 0.0000
0.9 0.04 0.0000
0.92 0.04 0.0000
0.94 0.04 0.0000
0.96 0.04 0.0000
0.98 0.04 0.0000
1.0 0.04 0.0000
1.02 0.04 0.0000
1.04 0.04 0.0000
1.06 0.04 0.0000
1.08 0.04 0.0000
1.1 0.04 0.0000
1.12 0.04 0.0000
1.14 0.04 0.0000
1.16 0.04 0.0000
1.18 0.04 0.0000
1.2 0.04 0.0000
1.22 0.04 0.0000
1.24 0.04 0.0000
1.26 0.04 0.0000
1.28 0.04 0.0000
1.3 0.04 0.0000
1.32 0.04 0.0000
1.34 0.04 0.0000
1.36 0.04 0.0000
1.38 0.04 0.0000
1.4 0.04 0.0000
1.42 0.04 0.0000
1.44 0.04 0.0000
1.46 0.04 0.0000
1.48 0.04 0.0000
1.5 0.04 0.0000
1.52 0.04 0.0000
1.54 0.04 0.0000
1.56 0.04 0.0000
1.58 0.04 0.0000
1.6 0.04 0.0000
1.62 0.04 0.0000
1.64 0.04 0.0000
1.66 0.04 0.0000
1.68 0.04 0.0000
1.7 0.04 0.0000
1.72 0.04 0.0000
1.74 0.04 0.0000
1.76 0.04 0.0000
1.78 0.04 0.0000
1.8 0.04 0.0000
1.82 0.04 0.0000
1.84 0.04 0.0000
1.86 0.04 0.0000
1.88 0.04 0.0000
1.9 0.04 0.0000
1.92 0.04 0.0000
1.94 0.04 0.0000
1.96 0.04 0.0000
1.98 0.04 0.0000
2.0 0.04 0.0000
2.02 0.04 0.0000
2.04 0.04 0.0000
2.06 0.04 0.0000
2.08 0.04 0.0000
2.1 0.04 0.0000
2.12 0.04 0.0000
2.14 0.04 0.0000
2.16 0.04 0.0000
2.18 0.04 0.0000
2.2 0.04 0.0000
2.22 0.04 0.0000
2.24 0.04 0.0000
2.26 0.04 0.0000
2.28 0.04 0.0000
2.3 0.04 0.0000
2.32 0.04 0.0000
2.34 0.04 0.0000
2.36 0.04 0.0000
2.38 0.04 0.0000
2.4 0.04 0.0000
2.42 0.04 0.0000
2.44 0.04 0.0000
2.46 0.04 0.0000
2.48 0.04 0.0000
2.5 0.04 0.0000
2.52 0.04 0.0000
2.54 0.04 0.0000
2.56 0.04 0.0000
2.58 0.04 0.0000
2.6 0.04 0.0000
2.62 0.04 0.0000
2.64 0.04 0.0000
2.66 0.04 0.0000
2.68 0.04 0.0000
2.7 0.04 0.0000
2.72 0.04 0.0000
2.74 0.04 0.0000
2.76 0.04 0.0000
2.78 0.04 0.0000
2.8 0.04 0.0000
2.82 0.04 0.0000
2.84 0.04 0.0000
2.86 0.04 0.0000
2.88 0.04 0.0000
2.9 0.04 0.0000
2.92 0.04 0.0000
2.94 0.04 0.0000
2.96 0.04 0.0000
2.98 0.04 0.0000
3.0 0.04 0.0000
3.02 0.04 0.0000
3.04 0.04 0.0000
3.06 0.04 0.0000
3.08 0.04 0.0000
3.1 0.04 0.0000
3.12 0.04 0.0000
3.14 0.04 0.0000
3.16 0.04 0.0000
3.18 0.04 0.0000
3.2 0.04 0.0000
3.22 0.04 0.0000
3.24 0.04 0.0000
3.26 0.04 0.0000
3.28 0.04 0.0000
3.3 0.04 0.0000
3.32 0.04 0.0000
3.34 0.04 0.0000
3.36 0.04 0.0000
3.38 0.04 0.0000
3.4 0.04 0.0000
3.42 0.04 0.0000
3.44 0.04 0.0000
3.46 0.04 0.0000
3.48 0.04 0.0000
3.5 0.04 0.0000
3.52 0.04 0.0000
3.54 0.04 0.0000
[...]
POINT_DATA 20000
VECTORS velocity float
0.05 0.0 0.0000
0.05 0.0 0.0000
0.0498 0.0 0.0000
0.0495 0.0 0.0000
0.0491 0.0 0.0000
0.0485 0.0 0.0000
0.0477 0.0 0.0000
0.0467 0.0 0.0000
0.0455 0.0 0.0000
0.0441 0.0 0.0000
0.0423 0.0 0.0000
0.0401 0.0 0.0000
0.0376 0.0 0.0000
0.0345 0.0 0.0000
0.0308 0.0 0.0000
0.0265 0.0 0.0000
0.022 0.0 0.0000
0.0164 0.0 0.0000
0.0159 0.0 0.0000
0.0 0.0 0.0000
0.0 0.0 0.0000
0.0 0.0 0.0000
0.0 0.0 0.0000
0.0 0.0 0.0000
0.0 0.0 0.0000
0.0026 0.0 0.0000
0.0017 0.0 0.0000
0.0008 0.0 0.0000
-0.0001 0.0 0.0000
-0.0009 0.0 0.0000
-0.0014 0.0 0.0000
-0.0017 0.0 0.0000
-0.0017 0.0 0.0000
-0.0015 0.0 0.0000
-0.0011 0.0 0.0000
-0.0005 0.0 0.0000
0.0001 0.0 0.0000
0.0008 0.0 0.0000
0.0015 0.0 0.0000
0.0022 0.0 0.0000
0.003 0.0 0.0000
0.0037 0.0 0.0000
0.0045 0.0 0.0000
0.0052 0.0 0.0000
0.006 0.0 0.0000
0.0067 0.0 0.0000
0.0074 0.0 0.0000
0.0082 0.0 0.0000
0.0089 0.0 0.0000
0.0095 0.0 0.0000
0.0102 0.0 0.0000
0.0109 0.0 0.0000
0.0115 0.0 0.0000
0.0122 0.0 0.0000
0.0128 0.0 0.0000
0.0134 0.0 0.0000
0.014 0.0 0.0000
0.0146 0.0 0.0000
0.0152 0.0 0.0000
0.0157 0.0 0.0000
0.0163 0.0 0.0000
0.0168 0.0 0.0000
0.0173 0.0 0.0000
0.0179 0.0 0.0000
0.0184 0.0 0.0000
0.0189 0.0 0.0000
0.0193 0.0 0.0000
0.0198 0.0 0.0000
0.0203 0.0 0.0000
0.0207 0.0 0.0000
0.0212 0.0 0.0000
0.0216 0.0 0.0000
0.022 0.0 0.0000
0.0224 0.0 0.0000
0.0229 0.0 0.0000
0.0233 0.0 0.0000
0.0236 0.0 0.0000
0.024 0.0 0.0000
0.0244 0.0 0.0000
0.0248 0.0 0.0000
0.0251 0.0 0.0000
0.0255 0.0 0.0000
0.0258 0.0 0.0000
0.0262 0.0 0.0000
0.0265 0.0 0.0000
0.0268 0.0 0.0000
0.0271 0.0 0.0000
0.0275 0.0 0.0000
0.0278 0.0 0.0000
0.0281 0.0 0.0000
0.0284 0.0 0.0000
0.0286 0.0 0.0000
0.0289 0.0 0.0000
0.0292 0.0 0.0000
0.0295 0.0 0.0000
0.0297 0.0 0.0000
0.03 0.0 0.0000
0.0303 0.0 0.0000
0.0305 0.0 0.0000
0.0308 0.0 0.0000
0.031 0.0 0.0000
0.0312 0.0 0.0000
0.0315 0.0 0.0000
0.0317 0.0 0.0000
0.0319 0.0 0.0000
0.0321 0.0 0.0000
0.0324 0.0 0.0000
0.0326 0.0 0.0000
0.0328 0.0 0.0000
0.033 0.0 0.0000
0.0332 0.0 0.0000
0.0334 0.0 0.0000
0.0336 0.0 0.0000
0.0338 0.0 0.0000
0.034 0.0 0.0000
0.0342 0.0 0.0000
0.0343 0.0 0.0000
0.0345 0.0 0.0000
0.0347 0.0 0.0000
0.0349 0.0 0.0000
0.035 0.0 0.0000
0.0352 0.0 0.0000
0.0354 0.0 0.0000
0.0355 0.0 0.0000
0.0357 0.0 0.0000
0.0359 0.0 0.0000
0.036 0.0 0.0000
0.0362 0.0 0.0000
0.0363 0.0 0.0000
0.0365 0.0 0.0000
0.0366 0.0 0.0000
0.0368 0.0 0.0000
0.0369 0.0 0.0000
0.037 0.0 0.0000
0.0372 0.0 0.0000
0.0373 0.0 0.0000
0.0375 0.0 0.0000
0.0376 0.0 0.0000
0.0377 0.0 0.0000
0.0378 0.0 0.0000
0.038 0.0 0.0000
0.0381 0.0 0.0000
0.0382 0.0 0.0000
0.0383 0.0 0.0000
0.0385 0.0 0.0000
0.0386 0.0 0.0000
0.0387 0.0 0.0000
0.0388 0.0 0.0000
0.0389 0.0 0.0000
0.0391 0.0 0.0000
0.0392 0.0 0.0000
0.0393 0.0 0.0000
0.0394 0.0 0.0000
0.0395 0.0 0.0000
0.0396 0.0 0.0000
0.0397 0.0 0.0000
0.0398 0.0 0.0000
0.0399 0.0 0.0000
0.04 0.0 0.0000
0.0401 0.0 0.0000
0.0402 0.0 0.0000
0.0403 0.0 0.0000
0.0405 0.0 0.0000
0.0406 0.0 0.0000
0.0407 0.0 0.0000
0.0408 0.0 0.0000
0.0409 0.0 0.0000
0.0409 0.0 0.0000
0.041 0.0 0.0000
0.0411 0.0 0.0000
0.0412 0.0 0.0000
0.0413 0.0 0.0000
0.0414 0.0 0.0000
0.0415 0.0 0.0000
0.0416 0.0 0.0000
0.0417 0.0 0.0000
0.0418 0.0 0.0000
0.0419 0.0 0.0000
0.042 0.0 0.0000
0.0421 0.0 0.0000
0.0422 0.0 0.0000
0.0423 0.0 0.0000
0.0424 0.0 0.0000
0.0425 0.0 0.0000
0.0426 0.0 0.0000
0.0427 0.0 0.0000
0.0428 0.0 0.0000
0.0429 0.0 0.0000
0.0429 0.0 0.0000
0.043 0.0 0.0000
0.0431 0.0 0.0000
0.0432 0.0 0.0000
0.0433 0.0 0.0000
0.0434 0.0 0.0000
0.0435 0.0 0.0000
0.0436 0.0 0.0000
0.0437 0.0 0.0000
0.0438 0.0 0.0000
0.0439 0.0 0.0000
0.0439 0.0 0.0000
0.05 0.0 0.0000
0.0499 0.0002 0.0000
0.0497 0.0004 0.0000
0.0493 0.0007 0.0000
0.0487 0.001 0.0000
0.048 0.0013 0.0000
0.047 0.0016 0.0000
0.0459 0.002 0.0000
0.0445 0.0025 0.0000
0.0428 0.003 0.0000
0.0408 0.0036 0.0000
0.0384 0.0043 0.0000
0.0355 0.0051 0.0000
0.0321 0.006 0.0000
0.0281 0.007 0.0000
0.0234 0.0078 0.0000
0.0186 0.0081 0.0000
0.013 0.0073 0.0000
0.0116 0.0053 0.0000
0.0 0.0 0.0000
0.0 0.0 0.0000
0.0 0.0 0.0000
0.0 0.0 0.0000
0.0 0.0 0.0000
0.0 0.0 0.0000
0.0022 0.001 0.0000
0.0011 0.0016 0.0000
0.0001 0.0017 0.0000
-0.0008 0.0016 0.0000
-0.0013 0.0012 0.0000
-0.0016 0.0007 0.0000
-0.0015 0.0002 0.0000
-0.0012 -0.0003 0.0000
-0.0008 -0.0007 0.0000
-0.0002 -0.0009 0.0000
0.0005 -0.0011 0.0000
0.0012 -0.0013 0.0000
0.0019 -0.0013 0.0000
0.0026 -0.0014 0.0000
0.0034 -0.0014 0.0000
0.0041 -0.0014 0.0000
0.0049 -0.0014 0.0000
0.0056 -0.0014 0.0000
0.0063 -0.0014 0.0000
0.0071 -0.0014 0.0000
0.0078 -0.0014 0.0000
0.0085 -0.0014 0.0000
0.0092 -0.0013 0.0000
0.0098 -0.0013 0.0000
0.0105 -0.0013 0.0000
0.0112 -0.0013 0.0000
0.0118 -0.0012 0.0000
0.0124 -0.0012 0.0000
0.013 -0.0012 0.0000
0.0136 -0.0012 0.0000
0.0142 -0.0011 0.0000
0.0148 -0.0011 0.0000
0.0154 -0.0011 0.0000
0.0159 -0.0011 0.0000
0.0165 -0.0011 0.0000
0.017 -0.001 0.0000
0.0175 -0.001 0.0000
0.018 -0.001 0.0000
0.0185 -0.001 0.0000
0.019 -0.0009 0.0000
0.0195 -0.0009 0.0000
0.02 -0.0009 0.0000
0.0204 -0.0009 0.0000
0.0209 -0.0009 0.0000
0.0213 -0.0009 0.0000
0.0218 -0.0008 0.0000
0.0222 -0.0008 0.0000
0.0226 -0.0008 0.0000
0.023 -0.0008 0.0000
0.0234 -0.0008 0.0000
0.0238 -0.0008 0.0000
0.0242 -0.0007 0.0000
0.0245 -0.0007 0.0000
0.0249 -0.0007 0.0000
0.0253 -0.0007 0.0000
0.0256 -0.0007 0.0000
0.026 -0.0007 0.0000
0.0263 -0.0007 0.0000
0.0266 -0.0006 0.0000
0.0269 -0.0006 0.0000
0.0273 -0.0006 0.0000
0.0276 -0.0006 0.0000
0.0279 -0.0006 0.0000
0.0282 -0.0006 0.0000
0.0285 -0.0006 0.0000
0.0287 -0.0006 0.0000
0.029 -0.0005 0.0000
0.0293 -0.0005 0.0000
0.0296 -0.0005 0.0000
0.0298 -0.0005 0.0000
0.0301 -0.0005 0.0000
0.0303 -0.0005 0.0000
0.0306 -0.0005 0.0000
0.0308 -0.0005 0.0000
0.0311 -0.0005 0.0000
0.0313 -0.0005 0.0000
0.0316 -0.0005 0.0000
0.0318 -0.0004 0.0000
0.032 -0.0004 0.0000
0.0322 -0.0004 0.0000
0.0324 -0.0004 0.0000
0.0327 -0.0004 0.0000
0.0329 -0.0004 0.0000
0.0331 -0.0004 0.0000
0.0333 -0.0004 0.0000
0.0335 -0.0004 0.0000
0.0337 -0.0004 0.0000
0.0339 -0.0004 0.0000
0.034 -0.0004 0.0000
0.0342 -0.0004 0.0000
0.0344 -0.0004 0.0000
0.0346 -0.0003 0.0000
0.0348 -0.0003 0.0000
0.0349 -0.0003 0.0000
0.0351 -0.0003 0.0000
0.0353 -0.0003 0.0000
0.0354 -0.0003 0.0000
0.0356 -0.0003 0.0000
0.0358 -0.0003 0.0000
0.0359 -0.0003 0.0000
0.0361 -0.0003 0.0000
0.0362 -0.0003 0.0000
0.0364 -0.0003 0.0000
0.0365 -0.0003 0.0000
0.0367 -0.0003 0.0000
0.0368 -0.0003 0.0000
0.037 -0.0003 0.0000
0.0371 -0.0003 0.0000
0.0372 -0.0003 0.0000
0.0374 -0.0003 0.0000
0.0375 -0.0003 0.0000
0.0376 -0.0003 0.0000
0.0378 -0.0003 0.0000
0.0379 -0.0003 0.0000
0.038 -0.0002 0.0000
0.0381 -0.0002 0.0000
0.0383 -0.0002 0.0000
0.0384 -0.0002 0.0000
0.0385 -0.0002 0.0000
0.0386 -0.0002 0.0000
0.0388 -0.0002 0.0000
0.0389 -0.0002 0.0000
0.039 -0.0002 0.0000
0.0391 -0.0002 0.0000
0.0392 -0.0002 0.0000
0.0393 -0.0002 0.0000
0.0394 -0.0002 0.0000
0.0395 -0.0002 0.0000
0.0397 -0.0002 0.0000
0.0398 -0.0002 0.0000
0.0399 -0.0002 0.0000
0.04 -0.0002 0.0000
0.0401 -0.0002 0.0000
0.0402 -0.0002 0.0000
0.0403 -0.0002 0.0000
0.0404 -0.0002 0.0000
0.0405 -0.0002 0.0000
0.0406 -0.0002 0.0000
0.0407 -0.0002 0.0000
0.0408 -0.0002 0.0000
0.0409 -0.0002 0.0000
0.041 -0.0002 0.0000
0.0411 -0.0002 0.0000
0.0412 -0.0002 0.0000
0.0413 -0.0002 0.0000
0.0414 -0.0002 0.0000
0.0415 -0.0002 0.0000
0.0416 -0.0002 0.0000
0.0417 -0.0002 0.0000
0.0417 -0.0002 0.0000
0.0418 -0.0002 0.0000
0.0419 -0.0002 0.0000
0.042 -0.0002 0.0000
0.0421 -0.0002 0.0000
0.0422 -0.0002 0.0000
0.0423 -0.0002 0.0000
0.0424 -0.0002 0.0000
0.0425 -0.0002 0.0000
0.0426 -0.0002 0.0000
0.0427 -0.0002 0.0000
0.0428 -0.0002 0.0000
0.0429 -0.0002 0.0000
0.043 -0.0002 0.0000
0.0431 -0.0002 0.0000
0.0432 -0.0002 0.0000
0.0433 -0.0002 0.0000
0.0434 -0.0002 0.0000
0.0435 -0.0002 0.0000
0.0436 -0.0002 0.0000
0.0436 -0.0002 0.0000
0.0437 -0.0002 0.0000
0.0438 -0.0002 0.0000
0.0439 -0.0001 0.0000
0.044 -0.0001 0.0000
0.044 0.0 0.0000
0.05 0.0 0.0000
0.0499 0.0003 0.0000
0.0497 0.0006 0.0000
0.0494 0.001 0.0000
0.0489 0.0014 0.0000
0.0482 0.0017 0.0000
0.0474 0.0022 0.0000
0.0464 0.0027 0.0000
0.0451 0.0032 0.0000
0.0436 0.0039 0.0000
0.0417 0.0047 0.0000
0.0395 0.0057 0.0000
0.0369 0.0068 0.0000
0.0337 0.0081 0.0000
0.03 0.0094 0.0000
0.0256 0.0105 0.0000
0.0208 0.011 0.0000
0.015 0.01 0.0000
0.0125 0.0067 0.0000
0.0 0.0 0.0000
0.0 0.0 0.0000
0.0 0.0 0.0000
0.0 0.0 0.0000
0.0 0.0 0.0000
0.0 0.0 0.0000
0.0023 0.0015 0.0000
0.0015 0.0021 0.0000
0.0007 0.002 0.0000
0.0002 0.0015 0.0000
-0.0 0.0009 0.0000
-0.0001 0.0003 0.0000
0.0 -0.0002 0.0000
0.0003 -0.0007 0.0000
0.0006 -0.001 0.0000
0.0011 -0.0012 0.0000
0.0016 -0.0014 0.0000
0.0022 -0.0015 0.0000
0.0028 -0.0015 0.0000
0.0035 -0.0016 0.0000
0.0041 -0.0016 0.0000
0.0048 -0.0016 0.0000
0.0055 -0.0016 0.0000
0.0062 -0.0016 0.0000
0.0069 -0.0015 0.0000
0.0076 -0.0015 0.0000
0.0083 -0.0015 0.0000
0.0089 -0.0015 0.0000
0.0096 -0.0014 0.0000
0.0103 -0.0014 0.0000
0.0109 -0.0014 0.0000
0.0115 -0.0014 0.0000
0.0122 -0.0013 0.0000
0.0128 -0.0013 0.0000
0.0134 -0.0013 0.0000
0.014 -0.0013 0.0000
0.0145 -0.0012 0.0000
0.0151 -0.0012 0.0000
0.0157 -0.0012 0.0000
0.0162 -0.0012 0.0000
0.0167 -0.0011 0.0000
0.0173 -0.0011 0.0000
0.0178 -0.0011 0.0000
0.0183 -0.0011 0.0000
0.0188 -0.001 0.0000
0.0192 -0.001 0.0000
0.0197 -0.001 0.0000
0.0202 -0.001 0.0000
0.0206 -0.001 0.0000
0.0211 -0.0009 0.0000
0.0215 -0.0009 0.0000
0.0219 -0.0009 0.0000
0.0223 -0.0009 0.0000
0.0227 -0.0009 0.0000
0.0231 -0.0008 0.0000
0.0235 -0.0008 0.0000
0.0239 -0.0008 0.0000
0.0243 -0.0008 0.0000
0.0247 -0.0008 0.0000
0.025 -0.0008 0.0000
0.0254 -0.0007 0.0000
0.0257 -0.0007 0.0000
0.0261 -0.0007 0.0000
0.0264 -0.0007 0.0000
0.0267 -0.0007 0.0000
0.027 -0.0007 0.0000
0.0274 -0.0007 0.0000
0.0277 -0.0006 0.0000
0.028 -0.0006 0.0000
0.0283 -0.0006 0.0000
0.0285 -0.0006 0.0000
0.0288 -0.0006 0.0000
0.0291 -0.0006 0.0000
0.0294 -0.0006 0.0000
0.0296 -0.0006 0.0000
0.0299 -0.0005 0.0000
0.0302 -0.0005 0.0000
0.0304 -0.0005 0.0000
0.0307 -0.0005 0.0000
0.0309 -0.0005 0.0000
0.0312 -0.0005 0.0000
0.0314 -0.0005 0.0000
0.0316 -0.0005 0.0000
0.0318 -0.0005 0.0000
0.0321 -0.0005 0.0000
0.0323 -0.0005 0.0000
0.0325 -0.0004 0.0000
0.0327 -0.0004 0.0000
0.0329 -0.0004 0.0000
0.0331 -0.0004 0.0000
0.0333 -0.0004 0.0000
0.0335 -0.0004 0.0000
0.0337 -0.0004 0.0000
0.0339 -0.0004 0.0000
0.0341 -0.0004 0.0000
0.0343 -0.0004 0.0000
0.0345 -0.0004 0.0000
0.0346 -0.0004 0.0000
0.0348 -0.0004 0.0000
0.035 -0.0004 0.0000
0.0351 -0.0003 0.0000
0.0353 -0.0003 0.0000
0.0355 -0.0003 0.0000
0.0356 -0.0003 0.0000
0.0358 -0.0003 0.0000
0.036 -0.0003 0.0000
0.0361 -0.0003 0.0000
0.0363 -0.0003 0.0000
0.0364 -0.0003 0.0000
0.0366 -0.0003 0.0000
0.0367 -0.0003 0.0000
0.0368 -0.0003 0.0000
0.037 -0.0003 0.0000
0.0371 -0.0003 0.0000
0.0373 -0.0003 0.0000
0.0374 -0.0003 0.0000
0.0375 -0.0003 0.0000
0.0377 -0.0003 0.0000
0.0378 -0.0003 0.0000
0.0379 -0.0003 0.0000
0.038 -0.0003 0.0000
0.0382 -0.0003 0.0000
0.0383 -0.0003 0.0000
0.0384 -0.0003 0.0000
0.0385 -0.0002 0.0000
0.0387 -0.0002 0.0000
0.0388 -0.0002 0.0000
0.0389 -0.0002 0.0000
0.039 -0.0002 0.0000
0.0391 -0.0002 0.0000
0.0392 -0.0002 0.0000
0.0393 -0.0002 0.0000
0.0395 -0.0002 0.0000
0.0396 -0.0002 0.0000
0.0397 -0.0002 0.0000
0.0398 -0.0002 0.0000
0.0399 -0.0002 0.0000
0.04 -0.0002 0.0000
0.0401 -0.0002 0.0000
0.0402 -0.0002 0.0000
0.0403 -0.0002 0.0000
0.0404 -0.0002 0.0000
0.0405 -0.0002 0.0000
0.0406 -0.0002 0.0000
0.0407 -0.0002 0.0000
0.0408 -0.0002 0.0000
0.0409 -0.0002 0.0000
0.041 -0.0002 0.0000
0.0411 -0.0002 0.0000
0.0412 -0.0002 0.0000
0.0413 -0.0002 0.0000
0.0414 -0.0002 0.0000
0.0415 -0.0002 0.0000
0.0416 -0.0002 0.0000
0.0417 -0.0002 0.0000
0.0418 -0.0002 0.0000
0.0418 -0.0002 0.0000
0.0419 -0.0002 0.0000
0.042 -0.0002 0.0000
0.0421 -0.0002 0.0000
0.0422 -0.0002 0.0000
0.0423 -0.0002 0.0000
0.0424 -0.0002 0.0000
0.0425 -0.0002 0.0000
0.0426 -0.0002 0.0000
0.0427 -0.0002 0.0000
0.0428 -0.0002 0.0000
0.0429 -0.0002 0.0000
0.043 -0.0002 0.0000
0.0431 -0.0002 0.0000
0.0432 -0.0002 0.0000
0.0432 -0.0002 0.0000
0.0433 -0.0002 0.0000
0.0434 -0.0002 0.0000
0.0435 -0.0002 0.0000
0.0436 -0.0002 0.0000
0.0437 -0.0002 0.0000
0.0438 -0.0002 0.0000
0.0439 -0.0002 0.0000
0.044 -0.0001 0.0000
0.044 0.0 0.0000
0.05 0.0 0.0000
0.0499 0.0005 0.0000
0.0497 0.001 0.0000
0.0493 0.0015 0.0000
0.0488 0.0021 0.0000
0.0481 0.0027 0.0000
0.0473 0.0034 0.0000
0.0462 0.0042 0.0000
0.0449 0.0051 0.0000
0.0434 0.0062 0.0000
0.0415 0.0074 0.0000
0.0394 0.0089 0.0000
0.0368 0.0106 0.0000
0.0338 0.0125 0.0000
0.0303 0.0145 0.0000
0.026 0.0164 0.0000
0.0214 0.0174 0.0000
0.0153 0.0164 0.0000
0.0122 0.0111 0.0000
0.0 0.0 0.0000
0.0 0.0 0.0000
0.0 0.0 0.0000
0.0 0.0 0.0000
0.0 0.0 0.0000
0.0 0.0 0.0000
0.0023 0.0023 0.0000
0.0014 0.003 0.0000
0.001 0.0029 0.0000
0.0009 0.0023 0.0000
0.0011 0.0014 0.0000
0.0014 0.0005 0.0000
0.0019 -0.0003 0.0000
0.0024 -0.001 0.0000
0.003 -0.0015 0.0000
0.0036 -0.0019 0.0000
0.0042 -0.0022 0.0000
0.0048 -0.0024 0.0000
0.0054 -0.0026 0.0000
0.0061 -0.0027 0.0000
0.0067 -0.0027 0.0000
0.0073 -0.0027 0.0000
0.008 -0.0027 0.0000
0.0086 -0.0027 0.0000
0.0092 -0.0027 0.0000
0.0098 -0.0027 0.0000
0.0105 -0.0026 0.0000
0.0111 -0.0026 0.0000
0.0117 -0.0026 0.0000
0.0123 -0.0025 0.0000
0.0129 -0.0025 0.0000
0.0134 -0.0024 0.0000
0.014 -0.0024 0.0000
0.0146 -0.0024 0.0000
0.0151 -0.0023 0.0000
0.0157 -0.0023 0.0000
0.0162 -0.0022 0.0000
0.0167 -0.0022 0.0000
0.0172 -0.0021 0.0000
0.0177 -0.0021 0.0000
0.0182 -0.002 0.0000
0.0187 -0.002 0.0000
0.0192 -0.002 0.0000
0.0197 -0.0019 0.0000
0.0201 -0.0019 0.0000
0.0206 -0.0018 0.0000
0.021 -0.0018 0.0000
0.0214 -0.0018 0.0000
0.0219 -0.0017 0.0000
0.0223 -0.0017 0.0000
0.0227 -0.0017 0.0000
0.0231 -0.0016 0.0000
0.0235 -0.0016 0.0000
0.0239 -0.0016 0.0000
0.0242 -0.0015 0.0000
0.0246 -0.0015 0.0000
0.025 -0.0015 0.0000
0.0253 -0.0014 0.0000
0.0257 -0.0014 0.0000
0.026 -0.0014 0.0000
0.0263 -0.0014 0.0000
0.0267 -0.0013 0.0000
0.027 -0.0013 0.0000
0.0273 -0.0013 0.0000
0.0276 -0.0013 0.0000
0.0279 -0.0012 0.0000
0.0282 -0.0012 0.0000
0.0285 -0.0012 0.0000
0.0288 -0.0012 0.0000
0.0291 -0.0011 0.0000
0.0293 -0.0011 0.0000
0.0296 -0.0011 0.0000
0.0299 -0.0011 0.0000
0.0301 -0.0011 0.0000
0.0304 -0.001 0.0000
0.0306 -0.001 0.0000
0.0309 -0.001 0.0000
0.0311 -0.001 0.0000
0.0313 -0.001 0.0000
0.0316 -0.0009 0.0000
0.0318 -0.0009 0.0000
0.032 -0.0009 0.0000
0.0322 -0.0009 0.0000
0.0325 -0.0009 0.0000
0.0327 -0.0009 0.0000
0.0329 -0.0008 0.0000
0.0331 -0.0008 0.0000
0.0333 -0.0008 0.0000
0.0335 -0.0008 0.0000
0.0337 -0.0008 0.0000
0.0339 -0.0008 0.0000
0.034 -0.0008 0.0000
0.0342 -0.0007 0.0000
0.0344 -0.0007 0.0000
0.0346 -0.0007 0.0000
0.0348 -0.0007 0.0000
0.0349 -0.0007 0.0000
0.0351 -0.0007 0.0000
0.0353 -0.0007 0.0000
0.0354 -0.0007 0.0000
0.0356 -0.0007 0.0000
0.0358 -0.0006 0.0000
0.0359 -0.0006 0.0000
0.0361 -0.0006 0.0000
0.0362 -0.0006 0.0000
0.0364 -0.0006 0.0000
0.0365 -0.0006 0.0000
0.0367 -0.0006 0.0000
0.0368 -0.0006 0.0000
0.037 -0.0006 0.0000
0.0371 -0.0006 0.0000
0.0372 -0.0006 0.0000
0.0374 -0.0005 0.0000
0.0375 -0.0005 0.0000
0.0376 -0.0005 0.0000
0.0378 -0.0005 0.0000
0.0379 -0.0005 0.0000
0.038 -0.0005 0.0000
0.0381 -0.0005 0.0000
0.0383 -0.0005 0.0000
0.0384 -0.0005 0.0000
0.0385 -0.0005 0.0000
0.0386 -0.0005 0.0000
0.0387 -0.0005 0.0000
0.0389 -0.0005 0.0000
0.039 -0.0005 0.0000
0.0391 -0.0005 0.0000
0.0392 -0.0005 0.0000
0.0393 -0.0004 0.0000
0.0394 -0.0004 0.0000
0.0395 -0.0004 0.0000
0.0396 -0.0004 0.0000
0.0397 -0.0004 0.0000
0.0399 -0.0004 0.0000
0.04 -0.0004 0.0000
0.0401 -0.0004 0.0000
0.0402 -0.0004 0.0000
0.0403 -0.0004 0.0000
0.0404 -0.0004 0.0000
0.0405 -0.0004 0.0000
0.0406 -0.0004 0.0000
0.0407 -0.0004 0.0000
0.0408 -0.0004 0.0000
0.0409 -0.0004 0.0000
0.041 -0.0004 0.0000
0.0411 -0.0004 0.0000
0.0411 -0.0004 0.0000
0.0412 -0.0004 0.0000
0.0413 -0.0004 0.0000
0.0414 -0.0004 0.0000
0.0415 -0.0004 0.0000
0.0416 -0.0004 0.0000
0.0417 -0.0004 0.0000
0.0418 -0.0004 0.0000
0.0419 -0.0004 0.0000
0.042 -0.0004 0.0000
0.0421 -0.0004 0.0000
0.0422 -0.0004 0.0000
0.0423 -0.0004 0.0000
0.0423 -0.0004 0.0000
0.0424 -0.0004 0.0000
0.0425 -0.0004 0.0000
0.0426 -0.0004 0.0000
0.0427 -0.0004 0.0000
0.0428 -0.0004 0.0000
0.0429 -0.0004 0.0000
0.043 -0.0004 0.0000
0.0431 -0.0004 0.0000
0.0432 -0.0004 0.0000
0.0433 -0.0004 0.0000
0.0434 -0.0004 0.0000
0.0435 -0.0004 0.0000
0.0435 -0.0004 0.0000
0.0436 -0.0004 0.0000
0.0437 -0.0004 0.0000
0.0438 -0.0004 0.0000
0.0439 -0.0004 0.0000
0.044 -0.0003 0.0000
0.0441 -0.0003 0.0000
0.0441 -0.0002 0.0000
0.0442 0.0 0.0000
0.05 0.0 0.0000
0.0499 0.0006 0.0000
0.0497 0.0012 0.0000
0.0494 0.0019 0.0000
0.0489 0.0026 0.0000
0.0483 0.0033 0.0000
0.0475 0.0042 0.0000
0.0466 0.0051 0.0000
0.0455 0.0062 0.0000
0.0441 0.0074 0.0000
0.0425 0.0089 0.0000
0.0406 0.0106 0.0000
0.0383 0.0126 0.0000
0.0357 0.015 0.0000
0.0326 0.0175 0.0000
0.0289 0.0201 0.0000
0.0246 0.0219 0.0000
0.0186 0.0214 0.0000
0.0151 0.0156 0.0000
0.0 0.0 0.0000
0.0 0.0 0.0000
0.0 0.0 0.0000
0.0 0.0 0.0000
0.0 0.0 0.0000
0.0 0.0 0.0000
0.0027 0.003 0.0000
0.0025 0.0032 0.0000
0.0029 0.0025 0.0000
0.0036 0.0015 0.0000
0.0043 0.0004 0.0000
0.005 -0.0005 0.0000
0.0056 -0.0012 0.0000
0.006 -0.0017 0.0000
0.0064 -0.0021 0.0000
0.0068 -0.0024 0.0000
0.0072 -0.0026 0.0000
0.0077 -0.0027 0.0000
0.0081 -0.0028 0.0000
0.0086 -0.0029 0.0000
0.0091 -0.0029 0.0000
0.0096 -0.0029 0.0000
0.0101 -0.0029 0.0000
0.0107 -0.0029 0.0000
0.0112 -0.0029 0.0000
0.0118 -0.0028 0.0000
0.0123 -0.0028 0.0000
0.0128 -0.0028 0.0000
0.0134 -0.0027 0.0000
0.0139 -0.0027 0.0000
0.0144 -0.0026 0.0000
0.015 -0.0026 0.0000
0.0155 -0.0025 0.0000
0.016 -0.0025 0.0000
0.0165 -0.0024 0.0000
0.017 -0.0024 0.0000
0.0175 -0.0024 0.0000
0.018 -0.0023 0.0000
0.0184 -0.0023 0.0000
0.0189 -0.0022 0.0000
0.0194 -0.0022 0.0000
0.0198 -0.0021 0.0000
0.0203 -0.0021 0.0000
0.0207 -0.002 0.0000
0.0211 -0.002 0.0000
0.0215 -0.002 0.0000
0.022 -0.0019 0.0000
0.0224 -0.0019 0.0000
0.0228 -0.0018 0.0000
0.0232 -0.0018 0.0000
0.0235 -0.0018 0.0000
0.0239 -0.0017 0.0000
0.0243 -0.0017 0.0000
0.0246 -0.0017 0.0000
0.025 -0.0016 0.0000
0.0253 -0.0016 0.0000
0.0257 -0.0016 0.0000
0.026 -0.0015 0.0000
0.0264 -0.0015 0.0000
0.0267 -0.0015 0.0000
0.027 -0.0014 0.0000
0.0273 -0.0014 0.0000
0.0276 -0.0014 0.0000
0.0279 -0.0013 0.0000
0.0282 -0.0013 0.0000
0.0285 -0.0013 0.0000
0.0288 -0.0013 0.0000
0.0291 -0.0012 0.0000
0.0293 -0.0012 0.0000
0.0296 -0.0012 0.0000
0.0299 -0.0012 0.0000
0.0301 -0.0011 0.0000
0.0304 -0.0011 0.0000
0.0306 -0.0011 0.0000
0.0309 -0.0011 0.0000
0.0311 -0.0011 0.0000
0.0313 -0.001 0.0000
0.0316 -0.001 0.0000
0.0318 -0.001 0.0000
0.032 -0.001 0.0000
0.0322 -0.001 0.0000
0.0324 -0.0009 0.0000
0.0327 -0.0009 0.0000
0.0329 -0.0009 0.0000
0.0331 -0.0009 0.0000
0.0333 -0.0009 0.0000
0.0335 -0.0009 0.0000
0.0337 -0.0009 0.0000
0.0338 -0.0008 0.0000
0.034 -0.0008 0.0000
0.0342 -0.0008 0.0000
0.0344 -0.0008 0.0000
0.0346 -0.0008 0.0000
0.0348 -0.0008 0.0000
0.0349 -0.0008 0.0000
0.0351 -0.0007 0.0000
0.0353 -0.0007 0.0000
0.0354 -0.0007 0.0000
0.0356 -0.0007 0.0000
0.0357 -0.0007 0.0000
0.0359 -0.0007 0.0000
0.0361 -0.0007 0.0000
0.0362 -0.0007 0.0000
0.0364 -0.0007 0.0000
0.0365 -0.0006 0.0000
0.0367 -0.0006 0.0000
0.0368 -0.0006 0.0000
0.0369 -0.0006 0.0000
0.0371 -0.0006 0.0000
0.0372 -0.0006 0.0000
0.0373 -0.0006 0.0000
0.0375 -0.0006 0.0000
0.0376 -0.0006 0.0000
0.0377 -0.0006 0.0000
0.0379 -0.0006 0.0000
0.038 -0.0005 0.0000
0.0381 -0.0005 0.0000
0.0382 -0.0005 0.0000
0.0384 -0.0005 0.0000
0.0385 -0.0005 0.0000
0.0386 -0.0005 0.0000
0.0387 -0.0005 0.0000
0.0388 -0.0005 0.0000
0.039 -0.0005 0.0000
0.0391 -0.0005 0.0000
0.0392 -0.0005 0.0000
0.0393 -0.0005 0.0000
0.0394 -0.0005 0.0000
0.0395 -0.0005 0.0000
0.0396 -0.0005 0.0000
0.0397 -0.0005 0.0000
0.0398 -0.0004 0.0000
0.0399 -0.0004 0.0000
0.04 -0.0004 0.0000
0.0401 -0.0004 0.0000
0.0402 -0.0004 0.0000
0.0403 -0.0004 0.0000
0.0404 -0.0004 0.0000
0.0405 -0.0004 0.0000
0.0406 -0.0004 0.0000
0.0407 -0.0004 0.0000
0.0408 -0.0004 0.0000
0.0409 -0.0004 0.0000
0.041 -0.0004 0.0000
0.0411 -0.0004 0.0000