# vtk DataFile Version 3.0
2D flow
ASCII
DATASET STRUCTURED_GRID
DIMENSIONS 200 100 1
POINTS 20000 float
-0.19 0.0 0.0000
-0.18 0.0 0.0000
-0.17 0.0 0.0000
-0.16 0.0 0.0000
-0.15 0.0 0.0000
-0.14 0.0 0.0000
-0.13 0.0 0.0000
-0.12 0.0 0.0000
-0.11 0.0 0.0000
-0.1 0.0 0.0000
-0.09 0.0 0.0000
-0.08 0.0 0.0000
-0.07 0.0 0.0000
-0.06 0.0 0.0000
-0.05 0.0 0.0000
-0.04 0.0 0.0000
-0.03 0.0 0.0000
-0.02 0.0 0.0000
-0.01 0.0 0.0000
0.0 0.0 0.0000
0.01 0.0 0.0000
0.02 0.0 0.0000
0.03 0.0 0.0000
0.04 0.0 0.0000
0.05 0.0 0.0000
0.06 0.0 0.0000
0.07 0.0 0.0000
0.08 0.0 0.0000
0.09 0.0 0.0000
0.1 0.0 0.0000
0.11 0.0 0.0000
0.12 0.0 0.0000
0.13 0.0 0.0000
0.14 0.0 0.0000
0.15 0.0 0.0000
0.16 0.0 0.0000
0.17 0.0 0.0000
0.18 0.0 0.0000
0.19 0.0 0.0000
0.2 0.0 0.0000
0.21 0.0 0.0000
0.22 0.0 0.0000
0.23 0.0 0.0000
0.24 0.0 0.0000
0.25 0.0 0.0000
0.26 0.0 0.0000
0.27 0.0 0.0000
0.28 0.0 0.0000
0.29 0.0 0.0000
0.3 0.0 0.0000
0.31 0.0 0.0000
0.32 0.0 0.0000
0.33 0.0 0.0000
0.34 0.0 0.0000
0.35 0.0 0.0000
0.36 0.0 0.0000
0.37 0.0 0.0000
0.38 0.0 0.0000
0.39 0.0 0.0000
0.4 0.0 0.0000
0.41 0.0 0.0000
0.42 0.0 0.0000
0.43 0.0 0.0000
0.44 0.0 0.0000
0.45 0.0 0.0000
0.46 0.0 0.0000
0.47 0.0 0.0000
0.48 0.0 0.0000
0.49 0.0 0.0000
0.5 0.0 0.0000
0.51 0.0 0.0000
0.52 0.0 0.0000
0.53 0.0 0.0000
0.54 0.0 0.0000
0.55 0.0 0.0000
0.56 0.0 0.0000
0.57 0.0 0.0000
0.58 0.0 0.0000
0.59 0.0 0.0000
0.6 0.0 0.0000
0.61 0.0 0.0000
0.62 0.0 0.0000
0.63 0.0 0.0000
0.64 0.0 0.0000
0.65 0.0 0.0000
0.66 0.0 0.0000
0.67 0.0 0.0000
0.68 0.0 0.0000
0.69 0.0 0.0000
0.7 0.0 0.0000
0.71 0.0 0.0000
0.72 0.0 0.0000
0.73 0.0 0.0000
0.74 0.0 0.0000
0.75 0.0 0.0000
0.76 0.0 0.0000
0.77 0.0 0.0000
0.78 0.0 0.0000
0.79 0.0 0.0000
0.8 0.0 0.0000
0.81 0.0 0.0000
0.82 0.0 0.0000
0.83 0.0 0.0000
0.84 0.0 0.0000
0.85 0.0 0.0000
0.86 0.0 0.0000
0.87 0.0 0.0000
0.88 0.0 0.0000
0.89 0.0 0.0000
0.9 0.0 0.0000
0.91 0.0 0.0000
0.92 0.0 0.0000
0.93 0.0 0.0000
0.94 0.0 0.0000
0.95 0.0 0.0000
0.96 0.0 0.0000
0.97 0.0 0.0000
0.98 0.0 0.0000
0.99 0.0 0.0000
1.0 0.0 0.0000
1.01 0.0 0.0000
1.02 0.0 0.0000
1.03 0.0 0.0000
1.04 0.0 0.0000
1.05 0.0 0.0000
1.06 0.0 0.0000
1.07 0.0 0.0000
1.08 0.0 0.0000
1.09 0.0 0.0000
1.1 0.0 0.0000
1.11 0.0 0.0000
1.12 0.0 0.0000
1.13 0.0 0.0000
1.14 0.0 0.0000
1.15 0.0 0.0000
1.16 0.0 0.0000
1.17 0.0 0.0000
1.18 0.0 0.0000
1.19 0.0 0.0000
1.2 0.0 0.0000
1.21 0.0 0.0000
1.22 0.0 0.0000
1.23 0.0 0.0000
1.24 0.0 0.0000
1.25 0.0 0.0000
1.26 0.0 0.0000
1.27 0.0 0.0000
1.28 0.0 0.0000
1.29 0.0 0.0000
1.3 0.0 0.0000
1.31 0.0 0.0000
1.32 0.0 0.0000
1.33 0.0 0.0000
1.34 0.0 0.0000
1.35 0.0 0.0000
1.36 0.0 0.0000
1.37 0.0 0.0000
1.38 0.0 0.0000
1.39 0.0 0.0000
1.4 0.0 0.0000
1.41 0.0 0.0000
1.42 0.0 0.0000
1.43 0.0 0.0000
1.44 0.0 0.0000
1.45 0.0 0.0000
1.46 0.0 0.0000
1.47 0.0 0.0000
1.48 0.0 0.0000
1.49 0.0 0.0000
1.5 0.0 0.0000
1.51 0.0 0.0000
1.52 0.0 0.0000
1.53 0.0 0.0000
1.54 0.0 0.0000
1.55 0.0 0.0000
1.56 0.0 0.0000
1.57 0.0 0.0000
1.58 0.0 0.0000
1.59 0.0 0.0000
1.6 0.0 0.0000
1.61 0.0 0.0000
1.62 0.0 0.0000
1.63 0.0 0.0000
1.64 0.0 0.0000
1.65 0.0 0.0000
1.66 0.0 0.0000
1.67 0.0 0.0000
1.68 0.0 0.0000
1.69 0.0 0.0000
1.7 0.0 0.0000
1.71 0.0 0.0000
1.72 0.0 0.0000
1.73 0.0 0.0000
1.74 0.0 0.0000
1.75 0.0 0.0000
1.76 0.0 0.0000
1.77 0.0 0.0000
1.78 0.0 0.0000
1.79 0.0 0.0000
1.8 0.0 0.0000
-0.19 0.01 0.0000
-0.18 0.01 0.0000
-0.17 0.01 0.0000
-0.16 0.01 0.0000
-0.15 0.01 0.0000
-0.14 0.01 0.0000
-0.13 0.01 0.0000
-0.12 0.01 0.0000
-0.11 0.01 0.0000
-0.1 0.01 0.0000
-0.09 0.01 0.0000
-0.08 0.01 0.0000
-0.07 0.01 0.0000
-0.06 0.01 0.0000
-0.05 0.01 0.0000
-0.04 0.01 0.0000
-0.03 0.01 0.0000
-0.02 0.01 0.0000
-0.01 0.01 0.0000
0.0 0.01 0.0000
0.01 0.01 0.0000
0.02 0.01 0.0000
0.03 0.01 0.0000
0.04 0.01 0.0000
0.05 0.01 0.0000
0.06 0.01 0.0000
0.07 0.01 0.0000
0.08 0.01 0.0000
0.09 0.01 0.0000
0.1 0.01 0.0000
0.11 0.01 0.0000
0.12 0.01 0.0000
0.13 0.01 0.0000
0.14 0.01 0.0000
0.15 0.01 0.0000
0.16 0.01 0.0000
0.17 0.01 0.0000
0.18 0.01 0.0000
0.19 0.01 0.0000
0.2 0.01 0.0000
0.21 0.01 0.0000
0.22 0.01 0.0000
0.23 0.01 0.0000
0.24 0.01 0.0000
0.25 0.01 0.0000
0.26 0.01 0.0000
0.27 0.01 0.0000
0.28 0.01 0.0000
0.29 0.01 0.0000
0.3 0.01 0.0000
0.31 0.01 0.0000
0.32 0.01 0.0000
0.33 0.01 0.0000
0.34 0.01 0.0000
0.35 0.01 0.0000
0.36 0.01 0.0000
0.37 0.01 0.0000
0.38 0.01 0.0000
0.39 0.01 0.0000
0.4 0.01 0.0000
0.41 0.01 0.0000
0.42 0.01 0.0000
0.43 0.01 0.0000
0.44 0.01 0.0000
0.45 0.01 0.0000
0.46 0.01 0.0000
0.47 0.01 0.0000
0.48 0.01 0.0000
0.49 0.01 0.0000
0.5 0.01 0.0000
0.51 0.01 0.0000
0.52 0.01 0.0000
0.53 0.01 0.0000
0.54 0.01 0.0000
0.55 0.01 0.0000
0.56 0.01 0.0000
0.57 0.01 0.0000
0.58 0.01 0.0000
0.59 0.01 0.0000
0.6 0.01 0.0000
0.61 0.01 0.0000
0.62 0.01 0.0000
0.63 0.01 0.0000
0.64 0.01 0.0000
0.65 0.01 0.0000
0.66 0.01 0.0000
0.67 0.01 0.0000
0.68 0.01 0.0000
0.69 0.01 0.0000
0.7 0.01 0.0000
0.71 0.01 0.0000
0.72 0.01 0.0000
0.73 0.01 0.0000
0.74 0.01 0.0000
0.75 0.01 0.0000
0.76 0.01 0.0000
0.77 0.01 0.0000
0.78 0.01 0.0000
0.79 0.01 0.0000
0.8 0.01 0.0000
0.81 0.01 0.0000
0.82 0.01 0.0000
0.83 0.01 0.0000
0.84 0.01 0.0000
0.85 0.01 0.0000
0.86 0.01 0.0000
0.87 0.01 0.0000
0.88 0.01 0.0000
0.89 0.01 0.0000
0.9 0.01 0.0000
0.91 0.01 0.0000
0.92 0.01 0.0000
0.93 0.01 0.0000
0.94 0.01 0.0000
0.95 0.01 0.0000
0.96 0.01 0.0000
0.97 0.01 0.0000
0.98 0.01 0.0000
0.99 0.01 0.0000
1.0 0.01 0.0000
1.01 0.01 0.0000
1.02 0.01 0.0000
1.03 0.01 0.0000
1.04 0.01 0.0000
1.05 0.01 0.0000
1.06 0.01 0.0000
1.07 0.01 0.0000
1.08 0.01 0.0000
1.09 0.01 0.0000
1.1 0.01 0.0000
1.11 0.01 0.0000
1.12 0.01 0.0000
1.13 0.01 0.0000
1.14 0.01 0.0000
1.15 0.01 0.0000
1.16 0.01 0.0000
1.17 0.01 0.0000
1.18 0.01 0.0000
1.19 0.01 0.0000
1.2 0.01 0.0000
1.21 0.01 0.0000
1.22 0.01 0.0000
1.23 0.01 0.0000
1.24 0.01 0.0000
1.25 0.01 0.0000
1.26 0.01 0.0000
1.27 0.01 0.0000
1.28 0.01 0.0000
1.29 0.01 0.0000
1.3 0.01 0.0000
1.31 0.01 0.0000
1.32 0.01 0.0000
1.33 0.01 0.0000
1.34 0.01 0.0000
1.35 0.01 0.0000
1.36 0.01 0.0000
1.37 0.01 0.0000
1.38 0.01 0.0000
1.39 0.01 0.0000
1.4 0.01 0.0000
1.41 0.01 0.0000
1.42 0.01 0.0000
1.43 0.01 0.0000
1.44 0.01 0.0000
1.45 0.01 0.0000
1.46 0.01 0.0000
1.47 0.01 0.0000
1.48 0.01 0.0000
1.49 0.01 0.0000
1.5 0.01 0.0000
1.51 0.01 0.0000
1.52 0.01 0.0000
1.53 0.01 0.0000
1.54 0.01 0.0000
1.55 0.01 0.0000
1.56 0.01 0.0000
1.57 0.01 0.0000
1.58 0.01 0.0000
1.59 0.01 0.0000
1.6 0.01 0.0000
1.61 0.01 0.0000
1.62 0.01 0.0000
1.63 0.01 0.0000
1.64 0.01 0.0000
1.65 0.01 0.0000
1.66 0.01 0.0000
1.67 0.01 0.0000
1.68 0.01 0.0000
1.69 0.01 0.0000
1.7 0.01 0.0000
1.71 0.01 0.0000
1.72 0.01 0.0000
1.73 0.01 0.0000
1.74 0.01 0.0000
1.75 0.01 0.0000
1.76 0.01 0.0000
1.77 0.01 0.0000
1.78 0.01 0.0000
1.79 0.01 0.0000
1.8 0.01 0.0000
-0.19 0.02 0.0000
-0.18 0.02 0.0000
-0.17 0.02 0.0000
-0.16 0.02 0.0000
-0.15 0.02 0.0000
-0.14 0.02 0.0000
-0.13 0.02 0.0000
-0.12 0.02 0.0000
-0.11 0.02 0.0000
-0.1 0.02 0.0000
-0.09 0.02 0.0000
-0.08 0.02 0.0000
-0.07 0.02 0.0000
-0.06 0.02 0.0000
-0.05 0.02 0.0000
-0.04 0.02 0.0000
-0.03 0.02 0.0000
-0.02 0.02 0.0000
-0.01 0.02 0.0000
0.0 0.02 0.0000
0.01 0.02 0.0000
0.02 0.02 0.0000
0.03 0.02 0.0000
0.04 0.02 0.0000
0.05 0.02 0.0000
0.06 0.02 0.0000
0.07 0.02 0.0000
0.08 0.02 0.0000
0.09 0.02 0.0000
0.1 0.02 0.0000
0.11 0.02 0.0000
0.12 0.02 0.0000
0.13 0.02 0.0000
0.14 0.02 0.0000
0.15 0.02 0.0000
0.16 0.02 0.0000
0.17 0.02 0.0000
0.18 0.02 0.0000
0.19 0.02 0.0000
0.2 0.02 0.0000
0.21 0.02 0.0000
0.22 0.02 0.0000
0.23 0.02 0.0000
0.24 0.02 0.0000
0.25 0.02 0.0000
0.26 0.02 0.0000
0.27 0.02 0.0000
0.28 0.02 0.0000
0.29 0.02 0.0000
0.3 0.02 0.0000
0.31 0.02 0.0000
0.32 0.02 0.0000
0.33 0.02 0.0000
0.34 0.02 0.0000
0.35 0.02 0.0000
0.36 0.02 0.0000
0.37 0.02 0.0000
0.38 0.02 0.0000
0.39 0.02 0.0000
0.4 0.02 0.0000
0.41 0.02 0.0000
0.42 0.02 0.0000
0.43 0.02 0.0000
0.44 0.02 0.0000
0.45 0.02 0.0000
0.46 0.02 0.0000
0.47 0.02 0.0000
0.48 0.02 0.0000
0.49 0.02 0.0000
0.5 0.02 0.0000
0.51 0.02 0.0000
0.52 0.02 0.0000
0.53 0.02 0.0000
0.54 0.02 0.0000
0.55 0.02 0.0000
0.56 0.02 0.0000
0.57 0.02 0.0000
0.58 0.02 0.0000
0.59 0.02 0.0000
0.6 0.02 0.0000
0.61 0.02 0.0000
0.62 0.02 0.0000
0.63 0.02 0.0000
0.64 0.02 0.0000
0.65 0.02 0.0000
0.66 0.02 0.0000
0.67 0.02 0.0000
0.68 0.02 0.0000
0.69 0.02 0.0000
0.7 0.02 0.0000
0.71 0.02 0.0000
0.72 0.02 0.0000
0.73 0.02 0.0000
0.74 0.02 0.0000
0.75 0.02 0.0000
0.76 0.02 0.0000
0.77 0.02 0.0000
0.78 0.02 0.0000
0.79 0.02 0.0000
0.8 0.02 0.0000
0.81 0.02 0.0000
0.82 0.02 0.0000
0.83 0.02 0.0000
0.84 0.02 0.0000
0.85 0.02 0.0000
0.86 0.02 0.0000
0.87 0.02 0.0000
0.88 0.02 0.0000
0.89 0.02 0.0000
0.9 0.02 0.0000
0.91 0.02 0.0000
0.92 0.02 0.0000
0.93 0.02 0.0000
0.94 0.02 0.0000
0.95 0.02 0.0000
0.96 0.02 0.0000
0.97 0.02 0.0000
0.98 0.02 0.0000
0.99 0.02 0.0000
1.0 0.02 0.0000
1.01 0.02 0.0000
1.02 0.02 0.0000
1.03 0.02 0.0000
1.04 0.02 0.0000
1.05 0.02 0.0000
1.06 0.02 0.0000
1.07 0.02 0.0000
1.08 0.02 0.0000
1.09 0.02 0.0000
1.1 0.02 0.0000
1.11 0.02 0.0000
1.12 0.02 0.0000
1.13 0.02 0.0000
1.14 0.02 0.0000
1.15 0.02 0.0000
1.16 0.02 0.0000
1.17 0.02 0.0000
1.18 0.02 0.0000
1.19 0.02 0.0000
1.2 0.02 0.0000
1.21 0.02 0.0000
1.22 0.02 0.0000
1.23 0.02 0.0000
1.24 0.02 0.0000
1.25 0.02 0.0000
1.26 0.02 0.0000
1.27 0.02 0.0000
1.28 0.02 0.0000
1.29 0.02 0.0000
1.3 0.02 0.0000
1.31 0.02 0.0000
1.32 0.02 0.0000
1.33 0.02 0.0000
1.34 0.02 0.0000
1.35 0.02 0.0000
1.36 0.02 0.0000
1.37 0.02 0.0000
1.38 0.02 0.0000
1.39 0.02 0.0000
1.4 0.02 0.0000
1.41 0.02 0.0000
1.42 0.02 0.0000
1.43 0.02 0.0000
1.44 0.02 0.0000
1.45 0.02 0.0000
1.46 0.02 0.0000
1.47 0.02 0.0000
1.48 0.02 0.0000
1.49 0.02 0.0000
1.5 0.02 0.0000
1.51 0.02 0.0000
1.52 0.02 0.0000
1.53 0.02 0.0000
1.54 0.02 0.0000
1.55 0.02 0.0000
1.56 0.02 0.0000
1.57 0.02 0.0000
1.58 0.02 0.0000
1.59 0.02 0.0000
1.6 0.02 0.0000
1.61 0.02 0.0000
1.62 0.02 0.0000
1.63 0.02 0.0000
1.64 0.02 0.0000
1.65 0.02 0.0000
1.66 0.02 0.0000
1.67 0.02 0.0000
1.68 0.02 0.0000
1.69 0.02 0.0000
1.7 0.02 0.0000
1.71 0.02 0.0000
1.72 0.02 0.0000
1.73 0.02 0.0000
[...]
POINT_DATA 20000
VECTORS velocity float
0.05 0.0 0.0000
0.0499 0.0 0.0000
0.0497 0.0 0.0000
0.0493 0.0 0.0000
0.0487 0.0 0.0000
0.0478 0.0 0.0000
0.0467 0.0 0.0000
0.0454 0.0 0.0000
0.0437 0.0 0.0000
0.0419 0.0 0.0000
0.0397 0.0 0.0000
0.0372 0.0 0.0000
0.0345 0.0 0.0000
0.0316 0.0 0.0000
0.0286 0.0 0.0000
0.0256 0.0 0.0000
0.0229 0.0 0.0000
0.0217 0.0 0.0000
0.019 0.0 0.0000
0.0 0.0 0.0000
0.0 0.0 0.0000
0.0 0.0 0.0000
0.0 0.0 0.0000
0.0 0.0 0.0000
0.0 0.0 0.0000
0.0 0.0 0.0000
0.0 0.0 0.0000
0.0 0.0 0.0000
0.0 0.0 0.0000
0.0 0.0 0.0000
0.0033 0.0 0.0000
0.0039 0.0 0.0000
0.0032 0.0 0.0000
0.0027 0.0 0.0000
0.0021 0.0 0.0000
0.0014 0.0 0.0000
0.0008 0.0 0.0000
0.0001 0.0 0.0000
-0.0004 0.0 0.0000
-0.0009 0.0 0.0000
-0.0013 0.0 0.0000
-0.0015 0.0 0.0000
-0.0017 0.0 0.0000
-0.0018 0.0 0.0000
-0.0018 0.0 0.0000
-0.0017 0.0 0.0000
-0.0015 0.0 0.0000
-0.0013 0.0 0.0000
-0.001 0.0 0.0000
-0.0007 0.0 0.0000
-0.0003 0.0 0.0000
0.0001 0.0 0.0000
0.0005 0.0 0.0000
0.0009 0.0 0.0000
0.0014 0.0 0.0000
0.0018 0.0 0.0000
0.0023 0.0 0.0000
0.0028 0.0 0.0000
0.0033 0.0 0.0000
0.0038 0.0 0.0000
0.0043 0.0 0.0000
0.0048 0.0 0.0000
0.0053 0.0 0.0000
0.0058 0.0 0.0000
0.0063 0.0 0.0000
0.0067 0.0 0.0000
0.0072 0.0 0.0000
0.0077 0.0 0.0000
0.0082 0.0 0.0000
0.0087 0.0 0.0000
0.0092 0.0 0.0000
0.0096 0.0 0.0000
0.0101 0.0 0.0000
0.0106 0.0 0.0000
0.011 0.0 0.0000
0.0115 0.0 0.0000
0.0119 0.0 0.0000
0.0124 0.0 0.0000
0.0128 0.0 0.0000
0.0132 0.0 0.0000
0.0137 0.0 0.0000
0.0141 0.0 0.0000
0.0145 0.0 0.0000
0.0149 0.0 0.0000
0.0153 0.0 0.0000
0.0157 0.0 0.0000
0.0161 0.0 0.0000
0.0165 0.0 0.0000
0.0169 0.0 0.0000
0.0173 0.0 0.0000
0.0176 0.0 0.0000
0.018 0.0 0.0000
0.0184 0.0 0.0000
0.0187 0.0 0.0000
0.0191 0.0 0.0000
0.0194 0.0 0.0000
0.0198 0.0 0.0000
0.0201 0.0 0.0000
0.0205 0.0 0.0000
0.0208 0.0 0.0000
0.0211 0.0 0.0000
0.0214 0.0 0.0000
0.0218 0.0 0.0000
0.0221 0.0 0.0000
0.0224 0.0 0.0000
0.0227 0.0 0.0000
0.023 0.0 0.0000
0.0233 0.0 0.0000
0.0236 0.0 0.0000
0.0239 0.0 0.0000
0.0241 0.0 0.0000
0.0244 0.0 0.0000
0.0247 0.0 0.0000
0.025 0.0 0.0000
0.0252 0.0 0.0000
0.0255 0.0 0.0000
0.0258 0.0 0.0000
0.026 0.0 0.0000
0.0263 0.0 0.0000
0.0265 0.0 0.0000
0.0267 0.0 0.0000
0.027 0.0 0.0000
0.0272 0.0 0.0000
0.0275 0.0 0.0000
0.0277 0.0 0.0000
0.0279 0.0 0.0000
0.0281 0.0 0.0000
0.0284 0.0 0.0000
0.0286 0.0 0.0000
0.0288 0.0 0.0000
0.029 0.0 0.0000
0.0292 0.0 0.0000
0.0294 0.0 0.0000
0.0296 0.0 0.0000
0.0298 0.0 0.0000
0.03 0.0 0.0000
0.0302 0.0 0.0000
0.0304 0.0 0.0000
0.0306 0.0 0.0000
0.0308 0.0 0.0000
0.031 0.0 0.0000
0.0311 0.0 0.0000
0.0313 0.0 0.0000
0.0315 0.0 0.0000
0.0317 0.0 0.0000
0.0318 0.0 0.0000
0.032 0.0 0.0000
0.0322 0.0 0.0000
0.0323 0.0 0.0000
0.0325 0.0 0.0000
0.0327 0.0 0.0000
0.0328 0.0 0.0000
0.033 0.0 0.0000
0.0331 0.0 0.0000
0.0333 0.0 0.0000
0.0334 0.0 0.0000
0.0336 0.0 0.0000
0.0337 0.0 0.0000
0.0339 0.0 0.0000
0.034 0.0 0.0000
0.0342 0.0 0.0000
0.0343 0.0 0.0000
0.0344 0.0 0.0000
0.0346 0.0 0.0000
0.0347 0.0 0.0000
0.0348 0.0 0.0000
0.035 0.0 0.0000
0.0351 0.0 0.0000
0.0352 0.0 0.0000
0.0353 0.0 0.0000
0.0355 0.0 0.0000
0.0356 0.0 0.0000
0.0357 0.0 0.0000
0.0358 0.0 0.0000
0.036 0.0 0.0000
0.0361 0.0 0.0000
0.0362 0.0 0.0000
0.0363 0.0 0.0000
0.0364 0.0 0.0000
0.0365 0.0 0.0000
0.0367 0.0 0.0000
0.0368 0.0 0.0000
0.0369 0.0 0.0000
0.037 0.0 0.0000
0.0371 0.0 0.0000
0.0372 0.0 0.0000
0.0373 0.0 0.0000
0.0374 0.0 0.0000
0.0375 0.0 0.0000
0.0376 0.0 0.0000
0.0378 0.0 0.0000
0.0379 0.0 0.0000
0.038 0.0 0.0000
0.0381 0.0 0.0000
0.0382 0.0 0.0000
0.0382 0.0 0.0000
0.0383 0.0 0.0000
0.0384 0.0 0.0000
0.0384 0.0 0.0000
0.0385 0.0 0.0000
0.05 0.0 0.0000
0.0498 0.0003 0.0000
0.0495 0.0006 0.0000
0.0489 0.0009 0.0000
0.0481 0.0013 0.0000
0.0471 0.0017 0.0000
0.0458 0.0022 0.0000
0.0442 0.0026 0.0000
0.0423 0.0031 0.0000
0.0402 0.0036 0.0000
0.0378 0.004 0.0000
0.0352 0.0044 0.0000
0.0323 0.0048 0.0000
0.0293 0.005 0.0000
0.0263 0.005 0.0000
0.0233 0.0048 0.0000
0.0207 0.0041 0.0000
0.0197 0.0032 0.0000
0.0164 0.0019 0.0000
0.0 0.0 0.0000
0.0 0.0 0.0000
0.0 0.0 0.0000
0.0 0.0 0.0000
0.0 0.0 0.0000
0.0 0.0 0.0000
0.0 0.0 0.0000
0.0 0.0 0.0000
0.0 0.0 0.0000
0.0 0.0 0.0000
0.0 0.0 0.0000
0.0031 0.0004 0.0000
0.0036 0.0007 0.0000
0.0028 0.0009 0.0000
0.0021 0.0011 0.0000
0.0015 0.0012 0.0000
0.0008 0.0012 0.0000
0.0002 0.0011 0.0000
-0.0004 0.001 0.0000
-0.0008 0.0009 0.0000
-0.0012 0.0007 0.0000
-0.0015 0.0006 0.0000
-0.0017 0.0004 0.0000
-0.0017 0.0002 0.0000
-0.0017 0.0 0.0000
-0.0016 -0.0001 0.0000
-0.0014 -0.0003 0.0000
-0.0012 -0.0004 0.0000
-0.0009 -0.0005 0.0000
-0.0006 -0.0006 0.0000
-0.0002 -0.0006 0.0000
0.0002 -0.0007 0.0000
0.0006 -0.0008 0.0000
0.001 -0.0008 0.0000
0.0015 -0.0008 0.0000
0.002 -0.0009 0.0000
0.0024 -0.0009 0.0000
0.0029 -0.0009 0.0000
0.0034 -0.0009 0.0000
0.0039 -0.0009 0.0000
0.0044 -0.0009 0.0000
0.0049 -0.0009 0.0000
0.0054 -0.0009 0.0000
0.0059 -0.0009 0.0000
0.0063 -0.0009 0.0000
0.0068 -0.0009 0.0000
0.0073 -0.0009 0.0000
0.0078 -0.0009 0.0000
0.0083 -0.0009 0.0000
0.0088 -0.0009 0.0000
0.0092 -0.0009 0.0000
0.0097 -0.0009 0.0000
0.0102 -0.0009 0.0000
0.0106 -0.0009 0.0000
0.0111 -0.0009 0.0000
0.0115 -0.0009 0.0000
0.012 -0.0008 0.0000
0.0124 -0.0008 0.0000
0.0129 -0.0008 0.0000
0.0133 -0.0008 0.0000
0.0137 -0.0008 0.0000
0.0142 -0.0008 0.0000
0.0146 -0.0008 0.0000
0.015 -0.0008 0.0000
0.0154 -0.0008 0.0000
0.0158 -0.0008 0.0000
0.0162 -0.0007 0.0000
0.0166 -0.0007 0.0000
0.017 -0.0007 0.0000
0.0173 -0.0007 0.0000
0.0177 -0.0007 0.0000
0.0181 -0.0007 0.0000
0.0184 -0.0007 0.0000
0.0188 -0.0007 0.0000
0.0192 -0.0007 0.0000
0.0195 -0.0007 0.0000
0.0198 -0.0007 0.0000
0.0202 -0.0006 0.0000
0.0205 -0.0006 0.0000
0.0209 -0.0006 0.0000
0.0212 -0.0006 0.0000
0.0215 -0.0006 0.0000
0.0218 -0.0006 0.0000
0.0221 -0.0006 0.0000
0.0224 -0.0006 0.0000
0.0227 -0.0006 0.0000
0.023 -0.0006 0.0000
0.0233 -0.0006 0.0000
0.0236 -0.0006 0.0000
0.0239 -0.0005 0.0000
0.0242 -0.0005 0.0000
0.0245 -0.0005 0.0000
0.0247 -0.0005 0.0000
0.025 -0.0005 0.0000
0.0253 -0.0005 0.0000
0.0255 -0.0005 0.0000
0.0258 -0.0005 0.0000
0.026 -0.0005 0.0000
0.0263 -0.0005 0.0000
0.0265 -0.0005 0.0000
0.0268 -0.0005 0.0000
0.027 -0.0005 0.0000
0.0273 -0.0005 0.0000
0.0275 -0.0004 0.0000
0.0277 -0.0004 0.0000
0.028 -0.0004 0.0000
0.0282 -0.0004 0.0000
0.0284 -0.0004 0.0000
0.0286 -0.0004 0.0000
0.0288 -0.0004 0.0000
0.029 -0.0004 0.0000
0.0292 -0.0004 0.0000
0.0294 -0.0004 0.0000
0.0297 -0.0004 0.0000
0.0298 -0.0004 0.0000
0.03 -0.0004 0.0000
0.0302 -0.0004 0.0000
0.0304 -0.0004 0.0000
0.0306 -0.0004 0.0000
0.0308 -0.0004 0.0000
0.031 -0.0004 0.0000
0.0312 -0.0003 0.0000
0.0313 -0.0003 0.0000
0.0315 -0.0003 0.0000
0.0317 -0.0003 0.0000
0.0319 -0.0003 0.0000
0.032 -0.0003 0.0000
0.0322 -0.0003 0.0000
0.0324 -0.0003 0.0000
0.0325 -0.0003 0.0000
0.0327 -0.0003 0.0000
0.0328 -0.0003 0.0000
0.033 -0.0003 0.0000
0.0332 -0.0003 0.0000
0.0333 -0.0003 0.0000
0.0335 -0.0003 0.0000
0.0336 -0.0003 0.0000
0.0337 -0.0003 0.0000
0.0339 -0.0003 0.0000
0.034 -0.0003 0.0000
0.0342 -0.0003 0.0000
0.0343 -0.0003 0.0000
0.0345 -0.0003 0.0000
0.0346 -0.0003 0.0000
0.0347 -0.0003 0.0000
0.0349 -0.0003 0.0000
0.035 -0.0003 0.0000
0.0351 -0.0003 0.0000
0.0352 -0.0002 0.0000
0.0354 -0.0002 0.0000
0.0355 -0.0002 0.0000
0.0356 -0.0002 0.0000
0.0357 -0.0002 0.0000
0.0359 -0.0002 0.0000
0.036 -0.0002 0.0000
0.0361 -0.0002 0.0000
0.0362 -0.0002 0.0000
0.0363 -0.0002 0.0000
0.0364 -0.0002 0.0000
0.0366 -0.0002 0.0000
0.0367 -0.0002 0.0000
0.0368 -0.0002 0.0000
0.0369 -0.0002 0.0000
0.037 -0.0002 0.0000
0.0371 -0.0002 0.0000
0.0372 -0.0002 0.0000
0.0373 -0.0002 0.0000
0.0374 -0.0002 0.0000
0.0376 -0.0002 0.0000
0.0377 -0.0002 0.0000
0.0378 -0.0002 0.0000
0.0379 -0.0002 0.0000
0.038 -0.0002 0.0000
0.0381 -0.0002 0.0000
0.0382 -0.0002 0.0000
0.0383 -0.0002 0.0000
0.0383 -0.0002 0.0000
0.0384 -0.0001 0.0000
0.0385 -0.0001 0.0000
0.0385 -0.0001 0.0000
0.0385 0.0 0.0000
0.05 0.0 0.0000
0.0498 0.0005 0.0000
0.0495 0.0009 0.0000
0.049 0.0014 0.0000
0.0483 0.002 0.0000
0.0473 0.0025 0.0000
0.0461 0.0031 0.0000
0.0446 0.0037 0.0000
0.0429 0.0043 0.0000
0.0409 0.0049 0.0000
0.0386 0.0055 0.0000
0.0361 0.006 0.0000
0.0333 0.0065 0.0000
0.0304 0.0067 0.0000
0.0273 0.0067 0.0000
0.0242 0.0063 0.0000
0.0215 0.0055 0.0000
0.0199 0.0042 0.0000
0.0155 0.0025 0.0000
0.0 0.0 0.0000
0.0 0.0 0.0000
0.0 0.0 0.0000
0.0 0.0 0.0000
0.0 0.0 0.0000
0.0 0.0 0.0000
0.0 0.0 0.0000
0.0 0.0 0.0000
0.0 0.0 0.0000
0.0 0.0 0.0000
0.0 0.0 0.0000
0.0032 0.0005 0.0000
0.0038 0.0009 0.0000
0.003 0.0012 0.0000
0.0024 0.0013 0.0000
0.0018 0.0014 0.0000
0.0012 0.0014 0.0000
0.0007 0.0013 0.0000
0.0001 0.0011 0.0000
-0.0003 0.0009 0.0000
-0.0007 0.0007 0.0000
-0.001 0.0005 0.0000
-0.0011 0.0003 0.0000
-0.0012 0.0001 0.0000
-0.0012 -0.0001 0.0000
-0.0011 -0.0003 0.0000
-0.001 -0.0004 0.0000
-0.0008 -0.0005 0.0000
-0.0006 -0.0006 0.0000
-0.0003 -0.0007 0.0000
0.0001 -0.0008 0.0000
0.0004 -0.0008 0.0000
0.0008 -0.0009 0.0000
0.0012 -0.0009 0.0000
0.0017 -0.001 0.0000
0.0021 -0.001 0.0000
0.0026 -0.001 0.0000
0.003 -0.001 0.0000
0.0035 -0.001 0.0000
0.004 -0.001 0.0000
0.0045 -0.001 0.0000
0.0049 -0.001 0.0000
0.0054 -0.001 0.0000
0.0059 -0.001 0.0000
0.0064 -0.001 0.0000
0.0069 -0.001 0.0000
0.0074 -0.001 0.0000
0.0078 -0.001 0.0000
0.0083 -0.001 0.0000
0.0088 -0.001 0.0000
0.0093 -0.001 0.0000
0.0097 -0.001 0.0000
0.0102 -0.001 0.0000
0.0106 -0.001 0.0000
0.0111 -0.001 0.0000
0.0115 -0.001 0.0000
0.012 -0.0009 0.0000
0.0124 -0.0009 0.0000
0.0129 -0.0009 0.0000
0.0133 -0.0009 0.0000
0.0137 -0.0009 0.0000
0.0141 -0.0009 0.0000
0.0145 -0.0009 0.0000
0.0149 -0.0009 0.0000
0.0154 -0.0009 0.0000
0.0157 -0.0008 0.0000
0.0161 -0.0008 0.0000
0.0165 -0.0008 0.0000
0.0169 -0.0008 0.0000
0.0173 -0.0008 0.0000
0.0177 -0.0008 0.0000
0.018 -0.0008 0.0000
0.0184 -0.0008 0.0000
0.0188 -0.0008 0.0000
0.0191 -0.0007 0.0000
0.0195 -0.0007 0.0000
0.0198 -0.0007 0.0000
0.0201 -0.0007 0.0000
0.0205 -0.0007 0.0000
0.0208 -0.0007 0.0000
0.0211 -0.0007 0.0000
0.0215 -0.0007 0.0000
0.0218 -0.0007 0.0000
0.0221 -0.0007 0.0000
0.0224 -0.0006 0.0000
0.0227 -0.0006 0.0000
0.023 -0.0006 0.0000
0.0233 -0.0006 0.0000
0.0236 -0.0006 0.0000
0.0239 -0.0006 0.0000
0.0241 -0.0006 0.0000
0.0244 -0.0006 0.0000
0.0247 -0.0006 0.0000
0.025 -0.0006 0.0000
0.0252 -0.0006 0.0000
0.0255 -0.0005 0.0000
0.0257 -0.0005 0.0000
0.026 -0.0005 0.0000
0.0262 -0.0005 0.0000
0.0265 -0.0005 0.0000
0.0267 -0.0005 0.0000
0.027 -0.0005 0.0000
0.0272 -0.0005 0.0000
0.0274 -0.0005 0.0000
0.0277 -0.0005 0.0000
0.0279 -0.0005 0.0000
0.0281 -0.0005 0.0000
0.0283 -0.0005 0.0000
0.0286 -0.0005 0.0000
0.0288 -0.0004 0.0000
0.029 -0.0004 0.0000
0.0292 -0.0004 0.0000
0.0294 -0.0004 0.0000
0.0296 -0.0004 0.0000
0.0298 -0.0004 0.0000
0.03 -0.0004 0.0000
0.0302 -0.0004 0.0000
0.0304 -0.0004 0.0000
0.0306 -0.0004 0.0000
0.0308 -0.0004 0.0000
0.0309 -0.0004 0.0000
0.0311 -0.0004 0.0000
0.0313 -0.0004 0.0000
0.0315 -0.0004 0.0000
0.0317 -0.0004 0.0000
0.0318 -0.0004 0.0000
0.032 -0.0003 0.0000
0.0322 -0.0003 0.0000
0.0323 -0.0003 0.0000
0.0325 -0.0003 0.0000
0.0326 -0.0003 0.0000
0.0328 -0.0003 0.0000
0.033 -0.0003 0.0000
0.0331 -0.0003 0.0000
0.0333 -0.0003 0.0000
0.0334 -0.0003 0.0000
0.0336 -0.0003 0.0000
0.0337 -0.0003 0.0000
0.0339 -0.0003 0.0000
0.034 -0.0003 0.0000
0.0341 -0.0003 0.0000
0.0343 -0.0003 0.0000
0.0344 -0.0003 0.0000
0.0346 -0.0003 0.0000
0.0347 -0.0003 0.0000
0.0348 -0.0003 0.0000
0.035 -0.0003 0.0000
0.0351 -0.0003 0.0000
0.0352 -0.0003 0.0000
0.0353 -0.0003 0.0000
0.0355 -0.0003 0.0000
0.0356 -0.0003 0.0000
0.0357 -0.0003 0.0000
0.0358 -0.0003 0.0000
0.0359 -0.0002 0.0000
0.0361 -0.0002 0.0000
0.0362 -0.0002 0.0000
0.0363 -0.0002 0.0000
0.0364 -0.0002 0.0000
0.0365 -0.0002 0.0000
0.0366 -0.0002 0.0000
0.0368 -0.0002 0.0000
0.0369 -0.0002 0.0000
0.037 -0.0002 0.0000
0.0371 -0.0002 0.0000
0.0372 -0.0002 0.0000
0.0373 -0.0002 0.0000
0.0374 -0.0002 0.0000
0.0375 -0.0002 0.0000
0.0376 -0.0002 0.0000
0.0377 -0.0002 0.0000
0.0378 -0.0002 0.0000
0.0379 -0.0002 0.0000
0.038 -0.0002 0.0000
0.0381 -0.0002 0.0000
0.0382 -0.0002 0.0000
0.0383 -0.0002 0.0000
0.0384 -0.0001 0.0000
0.0385 -0.0001 0.0000
0.0385 -0.0001 0.0000
0.0385 0.0 0.0000
0.05 0.0 0.0000
0.0498 0.0007 0.0000
0.0495 0.0014 0.0000
0.0489 0.0022 0.0000
0.0481 0.003 0.0000
0.0471 0.0038 0.0000
0.0458 0.0047 0.0000
0.0443 0.0056 0.0000
0.0426 0.0066 0.0000
0.0405 0.0076 0.0000
0.0382 0.0085 0.0000
0.0356 0.0094 0.0000
0.0328 0.0101 0.0000
0.0298 0.0105 0.0000
0.0266 0.0106 0.0000
0.0233 0.0101 0.0000
0.0204 0.009 0.0000
0.0188 0.0071 0.0000
0.0142 0.0041 0.0000
0.0 0.0 0.0000
0.0 0.0 0.0000
0.0 0.0 0.0000
0.0 0.0 0.0000
0.0 0.0 0.0000
0.0 0.0 0.0000
0.0 0.0 0.0000
0.0 0.0 0.0000
0.0 0.0 0.0000
0.0 0.0 0.0000
0.0 0.0 0.0000
0.003 0.0008 0.0000
0.0036 0.0015 0.0000
0.0028 0.002 0.0000
0.0021 0.0022 0.0000
0.0015 0.0024 0.0000
0.0009 0.0023 0.0000
0.0004 0.0022 0.0000
-0.0001 0.002 0.0000
-0.0004 0.0017 0.0000
-0.0007 0.0013 0.0000
-0.0008 0.001 0.0000
-0.0008 0.0006 0.0000
-0.0008 0.0003 0.0000
-0.0007 -0.0001 0.0000
-0.0005 -0.0004 0.0000
-0.0003 -0.0006 0.0000
-0.0 -0.0008 0.0000
0.0003 -0.001 0.0000
0.0007 -0.0012 0.0000
0.001 -0.0013 0.0000
0.0014 -0.0014 0.0000
0.0018 -0.0015 0.0000
0.0023 -0.0016 0.0000
0.0027 -0.0017 0.0000
0.0031 -0.0017 0.0000
0.0036 -0.0017 0.0000
0.0041 -0.0018 0.0000
0.0045 -0.0018 0.0000
0.005 -0.0018 0.0000
0.0055 -0.0018 0.0000
0.0059 -0.0018 0.0000
0.0064 -0.0018 0.0000
0.0069 -0.0018 0.0000
0.0074 -0.0018 0.0000
0.0078 -0.0018 0.0000
0.0083 -0.0018 0.0000
0.0088 -0.0018 0.0000
0.0092 -0.0018 0.0000
0.0097 -0.0018 0.0000
0.0101 -0.0018 0.0000
0.0106 -0.0018 0.0000
0.011 -0.0017 0.0000
0.0115 -0.0017 0.0000
0.0119 -0.0017 0.0000
0.0124 -0.0017 0.0000
0.0128 -0.0017 0.0000
0.0132 -0.0017 0.0000
0.0136 -0.0016 0.0000
0.0141 -0.0016 0.0000
0.0145 -0.0016 0.0000
0.0149 -0.0016 0.0000
0.0153 -0.0016 0.0000
0.0157 -0.0015 0.0000
0.0161 -0.0015 0.0000
0.0165 -0.0015 0.0000
0.0168 -0.0015 0.0000
0.0172 -0.0015 0.0000
0.0176 -0.0014 0.0000
0.018 -0.0014 0.0000
0.0183 -0.0014 0.0000
0.0187 -0.0014 0.0000
0.019 -0.0014 0.0000
0.0194 -0.0014 0.0000
0.0197 -0.0013 0.0000
0.0201 -0.0013 0.0000
0.0204 -0.0013 0.0000
0.0207 -0.0013 0.0000
0.0211 -0.0013 0.0000
0.0214 -0.0012 0.0000
0.0217 -0.0012 0.0000
0.022 -0.0012 0.0000
0.0223 -0.0012 0.0000
0.0226 -0.0012 0.0000
0.0229 -0.0012 0.0000
0.0232 -0.0011 0.0000
0.0235 -0.0011 0.0000
0.0238 -0.0011 0.0000
0.0241 -0.0011 0.0000
0.0244 -0.0011 0.0000
0.0246 -0.0011 0.0000
0.0249 -0.0011 0.0000
0.0252 -0.001 0.0000
0.0254 -0.001 0.0000
0.0257 -0.001 0.0000
0.0259 -0.001 0.0000
0.0262 -0.001 0.0000
0.0264 -0.001 0.0000
0.0267 -0.001 0.0000
0.0269 -0.0009 0.0000
0.0272 -0.0009 0.0000
0.0274 -0.0009 0.0000
0.0276 -0.0009 0.0000
0.0279 -0.0009 0.0000
0.0281 -0.0009 0.0000
0.0283 -0.0009 0.0000
0.0285 -0.0009 0.0000
0.0287 -0.0008 0.0000
0.0289 -0.0008 0.0000
0.0292 -0.0008 0.0000
0.0294 -0.0008 0.0000
0.0296 -0.0008 0.0000
0.0298 -0.0008 0.0000
0.03 -0.0008 0.0000
0.0302 -0.0008 0.0000
0.0303 -0.0008 0.0000
0.0305 -0.0007 0.0000
0.0307 -0.0007 0.0000
0.0309 -0.0007 0.0000
0.0311 -0.0007 0.0000
0.0313 -0.0007 0.0000
0.0314 -0.0007 0.0000
0.0316 -0.0007 0.0000
0.0318 -0.0007 0.0000
0.032 -0.0007 0.0000
0.0321 -0.0007 0.0000
0.0323 -0.0006 0.0000
0.0325 -0.0006 0.0000
0.0326 -0.0006 0.0000
0.0328 -0.0006 0.0000
0.0329 -0.0006 0.0000
0.0331 -0.0006 0.0000
0.0332 -0.0006 0.0000
0.0334 -0.0006 0.0000
0.0335 -0.0006 0.0000
0.0337 -0.0006 0.0000
0.0338 -0.0006 0.0000
0.034 -0.0006 0.0000
0.0341 -0.0006 0.0000
0.0343 -0.0005 0.0000
0.0344 -0.0005 0.0000
0.0345 -0.0005 0.0000
0.0347 -0.0005 0.0000
0.0348 -0.0005 0.0000
0.0349 -0.0005 0.0000
0.0351 -0.0005 0.0000
0.0352 -0.0005 0.0000
0.0353 -0.0005 0.0000
0.0354 -0.0005 0.0000
0.0356 -0.0005 0.0000
0.0357 -0.0005 0.0000
0.0358 -0.0005 0.0000
0.0359 -0.0005 0.0000
0.036 -0.0005 0.0000
0.0362 -0.0005 0.0000
0.0363 -0.0005 0.0000
0.0364 -0.0005 0.0000
0.0365 -0.0004 0.0000
0.0366 -0.0004 0.0000
0.0367 -0.0004 0.0000
0.0368 -0.0004 0.0000
0.037 -0.0004 0.0000
0.0371 -0.0004 0.0000
0.0372 -0.0004 0.0000
0.0373 -0.0004 0.0000
0.0374 -0.0004 0.0000
0.0375 -0.0004 0.0000
0.0376 -0.0004 0.0000
0.0377 -0.0004 0.0000
0.0378 -0.0004 0.0000
0.0379 -0.0004 0.0000
0.038 -0.0004 0.0000
0.0381 -0.0004 0.0000
0.0382 -0.0004 0.0000
0.0383 -0.0004 0.0000
0.0384 -0.0003 0.0000
0.0385 -0.0003 0.0000
0.0385 -0.0003 0.0000
0.0386 -0.0002 0.0000
0.0386 -0.0001 0.0000
0.0386 0.0 0.0000
0.05 0.0 0.0000
0.0498 0.0009 0.0000
0.0495 0.0018 0.0000
0.049 0.0028 0.0000
0.0482 0.0038 0.0000
0.0473 0.0048 0.0000
0.0461 0.0059 0.0000
0.0446 0.0071 0.0000
0.0429 0.0082 0.0000
0.041 0.0094 0.0000
0.0387 0.0106 0.0000
0.0362 0.0117 0.0000
0.0335 0.0126 0.0000
0.0305 0.0132 0.0000
0.0272 0.0134 0.0000
0.0239 0.0129 0.0000
0.0208 0.0115 0.0000
0.0189 0.009 0.0000
0.014 0.0051 0.0000
0.0 0.0 0.0000
0.0 0.0 0.0000
0.0 0.0 0.0000
0.0 0.0 0.0000
0.0 0.0 0.0000
0.0 0.0 0.0000
0.0 0.0 0.0000
0.0 0.0 0.0000
0.0 0.0 0.0000
0.0 0.0 0.0000
0.0 0.0 0.0000
0.0031 0.001 0.0000
0.0037 0.0018 0.0000
0.003 0.0023 0.0000
0.0024 0.0026 0.0000
0.0018 0.0026 0.0000
0.0013 0.0025 0.0000
0.0009 0.0023 0.0000
0.0006 0.002 0.0000
0.0004 0.0016 0.0000
0.0002 0.0012 0.0000
0.0002 0.0007 0.0000
0.0002 0.0003 0.0000
0.0003 -0.0 0.0000
0.0004 -0.0004 0.0000
0.0006 -0.0006 0.0000
0.0008 -0.0009 0.0000
0.0011 -0.0011 0.0000
0.0013 -0.0013 0.0000
0.0017 -0.0014 0.0000
0.002 -0.0016 0.0000
0.0024 -0.0017 0.0000
0.0027 -0.0018 0.0000
0.0031 -0.0018 0.0000
0.0035 -0.0019 0.0000
0.004 -0.0019 0.0000
0.0044 -0.002 0.0000
0.0048 -0.002 0.0000
0.0053 -0.002 0.0000
0.0057 -0.002 0.0000
0.0062 -0.002 0.0000
0.0066 -0.002 0.0000
0.0071 -0.002 0.0000
0.0075 -0.002 0.0000
0.008 -0.002 0.0000
0.0084 -0.002 0.0000
0.0089 -0.002 0.0000
0.0093 -0.002 0.0000
0.0098 -0.002 0.0000
0.0102 -0.002 0.0000
0.0107 -0.002 0.0000
0.0111 -0.0019 0.0000
0.0116 -0.0019 0.0000
0.012 -0.0019 0.0000
0.0124 -0.0019 0.0000
0.0128 -0.0019 0.0000
0.0133 -0.0019 0.0000
0.0137 -0.0018 0.0000
0.0141 -0.0018 0.0000
0.0145 -0.0018 0.0000
0.0149 -0.0018 0.0000
0.0153 -0.0017 0.0000
0.0157 -0.0017 0.0000
0.0161 -0.0017 0.0000
0.0165 -0.0017 0.0000
0.0168 -0.0017 0.0000
0.0172 -0.0016 0.0000
0.0176 -0.0016 0.0000
0.0179 -0.0016 0.0000
0.0183 -0.0016 0.0000
0.0187 -0.0015 0.0000
0.019 -0.0015 0.0000
0.0194 -0.0015 0.0000
0.0197 -0.0015 0.0000
0.02 -0.0015 0.0000
0.0204 -0.0014 0.0000
0.0207 -0.0014 0.0000
0.021 -0.0014 0.0000
0.0213 -0.0014 0.0000
0.0217 -0.0014 0.0000
0.022 -0.0013 0.0000
0.0223 -0.0013 0.0000
0.0226 -0.0013 0.0000
0.0229 -0.0013 0.0000
0.0232 -0.0013 0.0000
0.0235 -0.0013 0.0000
0.0237 -0.0012 0.0000
0.024 -0.0012 0.0000
0.0243 -0.0012 0.0000
0.0246 -0.0012 0.0000
0.0248 -0.0012 0.0000
0.0251 -0.0011 0.0000
0.0254 -0.0011 0.0000
0.0256 -0.0011 0.0000
0.0259 -0.0011 0.0000
0.0261 -0.0011 0.0000
0.0264 -0.0011 0.0000
0.0266 -0.001 0.0000
0.0269 -0.001 0.0000
0.0271 -0.001 0.0000
0.0273 -0.001 0.0000
0.0276 -0.001 0.0000
0.0278 -0.001 0.0000
0.028 -0.001 0.0000
0.0282 -0.0009 0.0000
0.0285 -0.0009 0.0000
0.0287 -0.0009 0.0000
0.0289 -0.0009 0.0000
0.0291 -0.0009 0.0000
0.0293 -0.0009 0.0000
0.0295 -0.0009 0.0000
0.0297 -0.0009 0.0000
0.0299 -0.0008 0.0000
0.0301 -0.0008 0.0000
0.0303 -0.0008 0.0000
0.0305 -0.0008 0.0000
0.0307 -0.0008 0.0000
0.0309 -0.0008 0.0000
0.031 -0.0008 0.0000
0.0312 -0.0008 0.0000
0.0314 -0.0008 0.0000
0.0316 -0.0007 0.0000
0.0317 -0.0007 0.0000
0.0319 -0.0007 0.0000
0.0321 -0.0007 0.0000
0.0322 -0.0007 0.0000
0.0324 -0.0007 0.0000
0.0326 -0.0007 0.0000
0.0327 -0.0007 0.0000
0.0329 -0.0007 0.0000
0.033 -0.0007 0.0000
0.0332 -0.0006 0.0000
0.0333 -0.0006 0.0000
0.0335 -0.0006 0.0000
0.0336 -0.0006 0.0000
0.0338 -0.0006 0.0000
0.0339 -0.0006 0.0000
0.0341 -0.0006 0.0000
0.0342 -0.0006 0.0000
0.0343 -0.0006 0.0000
0.0345 -0.0006 0.0000
0.0346 -0.0006 0.0000
0.0348 -0.0006 0.0000
0.0349 -0.0006 0.0000
0.035 -0.0005 0.0000
0.0351 -0.0005 0.0000
0.0353 -0.0005 0.0000
0.0354 -0.0005 0.0000
0.0355 -0.0005 0.0000
0.0356 -0.0005 0.0000
0.0358 -0.0005 0.0000
0.0359 -0.0005 0.0000
0.036 -0.0005 0.0000